   * xtb version 6.3.3 (71d3805) compiled by 'conda@b85dec0bf610' on 2021-01-07
          program call               : /home/thijs/miniconda3/envs/ts-tools/bin/xtb path_opt3_xtb.xyz --chrg -1 --uhf 0 --opt --gbsa Water --input xcontrol_path_opt3_xtb
          number of atoms            :                     6
          number of electrons        :                    22
          charge                     :                    -1

   ID    Z sym.   atoms
    1    6 C      1
    2   17 Cl     2
    3    1 H      3-5
    4    9 F      6
constraining bond 1 6 to    2.3316000 Å, actual value:    2.6315945 Å
constraining bond 1 2 to    2.1310000 Å, actual value:    2.0760659 Å

        Solvent                        Water
        Solvent mass                       1.8000E+01 g/mol
          :  Hamiltonian                  GFN2-xTB          :
 * total energy  :   -12.5876325 Eh     change       -0.8762768E-11 Eh
 * total energy  :   -12.9790930 Eh     change       -0.3914606E+00 Eh
 * total energy  :   -13.2464081 Eh     change       -0.2673151E+00 Eh
 * total energy  :   -13.2476231 Eh     change       -0.1214984E-02 Eh
 * total energy  :   -13.2477360 Eh     change       -0.1129532E-03 Eh
 * total energy  :   -13.2476701 Eh     change        0.6594771E-04 Eh
 * total energy  :   -13.2477493 Eh     change       -0.7926281E-04 Eh
 * total energy  :   -13.2477494 Eh     change       -0.9508169E-07 Eh
   *** GEOMETRY OPTIMIZATION CONVERGED AFTER 8 ITERATIONS ***

 final structure:
================
6
 xtb: 6.3.3 (71d3805)
C         4.72470932319126   -0.02174960632001    0.00374087566272
Cl        6.84783409608234    0.07886410338087   -0.00875393240801
H         4.54888489493857   -0.57111971288032   -0.89975692731663
H         4.55938548275582   -0.54350634971732    0.92534750157679
H         4.47913682721482    1.02155810909349   -0.01060415241180
F         2.39612937581718   -0.13244654355671    0.03338663489693

          :  Hamiltonian                  GFN2-xTB          :
         :: total energy             -13.247749435867 Eh    ::
         :: gradient norm              0.000231049714 Eh/a0 ::
         :: HOMO-LUMO gap              2.542163571388 eV    ::
         :: SCC energy               -13.306214492219 Eh    ::
         :: -> dispersion             -0.001976811611 Eh    ::
         :: -> Gsolv                  -0.112984498280 Eh    ::
         :: repulsion energy           0.058252437493 Eh    ::

    * Orbital Energies and Occupations

         #    Occupation            Energy/Eh            Energy/eV
      -------------------------------------------------------------
         1        2.0000           -1.0359128             -28.1886
         2        2.0000           -0.6179733             -16.8159
         3        2.0000           -0.5890756             -16.0296
         4        2.0000           -0.4936395             -13.4326
         5        2.0000           -0.4936066             -13.4317
         6        2.0000           -0.4525549             -12.3146
         7        2.0000           -0.4073880             -11.0856
         8        2.0000           -0.4073878             -11.0856
         9        2.0000           -0.3516089              -9.5678
        10        2.0000           -0.3494178              -9.5081
        11        2.0000           -0.3494161              -9.5081 (HOMO)
        12                         -0.2559933              -6.9659 (LUMO)
        13                          0.0527371               1.4350
        14                          0.0527412               1.4352
        15                          0.0536035               1.4586
        16                          0.0536095               1.4588
        17                          0.0687449               1.8706
        18                          0.1381652               3.7597
        19                          0.2614620               7.1147
        20                          0.2615835               7.1181
      -------------------------------------------------------------
                  HL-Gap            0.0934228 Eh            2.5422 eV

     #   Z          covCN         q      C6AA      α(0)
     1   6 C        3.508    -0.003    22.148     6.964
     2  17 Cl       0.727    -0.403   111.996    16.187
     3   1 H        0.926     0.097     1.816     2.107
     4   1 H        0.926     0.097     1.814     2.106
     5   1 H        0.926     0.097     1.815     2.107
     6   9 F        0.002    -0.884    21.963     5.458

Wiberg/Mayer (AO) data.
largest (>0.10) Wiberg bond orders for each atom

     #   Z sym  total        # sym  WBO       # sym  WBO       # sym  WBO
 ---------------------------------------------------------------------------
     1   6 C    3.881 --     3 H    0.988     5 H    0.988     4 H    0.988
                             2 Cl   0.767     6 F    0.148
     2  17 Cl   0.844 --     1 C    0.767
     3   1 H    0.991 --     1 C    0.988
     4   1 H    0.991 --     1 C    0.988
     5   1 H    0.991 --     1 C    0.988
     6   9 F    0.219 --     1 C    0.148
 ---------------------------------------------------------------------------

molecular dipole:
                 x           y           z       tot (Debye)
 q only:       -6.765       0.144      -0.046
   full:       -6.911       0.137      -0.044      17.570

           -------------------------------------------------
          | TOTAL ENERGY              -13.247749435867 Eh   |
          | GRADIENT NORM               0.000231049714 Eh/α |
          | HOMO-LUMO GAP               2.542163571388 eV   |
           -------------------------------------------------

 * finished run on 2024/05/31 at 17:48:54.931
