   * xtb version 6.3.3 (71d3805) compiled by 'conda@b85dec0bf610' on 2021-01-07
          program call               : /home/thijs/miniconda3/envs/ts-tools/bin/xtb path_opt4_xtb.xyz --chrg -1 --uhf 0 --opt --gbsa Water --input xcontrol_path_opt4_xtb
          number of atoms            :                     6
          number of electrons        :                    22
          charge                     :                    -1

   ID    Z sym.   atoms
    1    6 C      1
    2   17 Cl     2
    3    1 H      3-5
    4    9 F      6
constraining bond 1 6 to    2.0314000 Å, actual value:    2.3313984 Å
constraining bond 1 2 to    2.1972000 Å, actual value:    2.1255392 Å

        Solvent                        Water
        Solvent mass                       1.8000E+01 g/mol
          :  Hamiltonian                  GFN2-xTB          :
 * total energy  :   -12.5685013 Eh     change       -0.3051781E-11 Eh
 * total energy  :   -12.9760289 Eh     change       -0.4075276E+00 Eh
 * total energy  :   -13.2451281 Eh     change       -0.2690992E+00 Eh
 * total energy  :   -13.2456196 Eh     change       -0.4915056E-03 Eh
 * total energy  :   -13.2456080 Eh     change        0.1159808E-04 Eh
 * total energy  :   -13.2456409 Eh     change       -0.3281241E-04 Eh
 * total energy  :   -13.2456434 Eh     change       -0.2538792E-05 Eh
   *** GEOMETRY OPTIMIZATION CONVERGED AFTER 7 ITERATIONS ***

 final structure:
================
6
 xtb: 6.3.3 (71d3805)
C         4.60610139970795   -0.02730502980484    0.00493277763618
Cl        6.79848937124645    0.07640947920707   -0.00821412973785
H         4.54314961606466   -0.57788310359233   -0.91000959490243
H         4.55684152849717   -0.54992160411200    0.93698706861188
H         4.47363588817008    1.03400686031097   -0.01029272510063
F         2.57786219631368   -0.12371660200887    0.02996660349285

          :  Hamiltonian                  GFN2-xTB          :
         :: total energy             -13.245643399271 Eh    ::
         :: gradient norm              0.000680589858 Eh/a0 ::
         :: HOMO-LUMO gap              3.565288259120 eV    ::
         :: SCC energy               -13.304786663755 Eh    ::
         :: -> dispersion             -0.001997966492 Eh    ::
         :: -> Gsolv                  -0.097514042320 Eh    ::
         :: repulsion energy           0.059101265722 Eh    ::

    * Orbital Energies and Occupations

         #    Occupation            Energy/Eh            Energy/eV
      -------------------------------------------------------------
         1        2.0000           -1.0215263             -27.7971
         2        2.0000           -0.6583130             -17.9136
         3        2.0000           -0.5842022             -15.8970
         4        2.0000           -0.4925314             -13.4025
         5        2.0000           -0.4925164             -13.4021
         6        2.0000           -0.4412352             -12.0066
         7        2.0000           -0.3961408             -10.7795
         8        2.0000           -0.3961364             -10.7794
         9        2.0000           -0.3766729             -10.2498
        10        2.0000           -0.3766625             -10.2495
        11        2.0000           -0.3752355             -10.2107 (HOMO)
        12                         -0.2442135              -6.6454 (LUMO)
        13                          0.0775431               2.1101
        14                          0.0775450               2.1101
        15                          0.0780259               2.1232
        16                          0.0780280               2.1233
        17                          0.0819909               2.2311
        18                          0.1277125               3.4752
        19                          0.2781974               7.5701
        20                          0.2783809               7.5751
      -------------------------------------------------------------
                  HL-Gap            0.1310219 Eh            3.5653 eV

     #   Z          covCN         q      C6AA      α(0)
     1   6 C        3.542     0.018    21.336     6.767
     2  17 Cl       0.640    -0.569   117.474    16.573
     3   1 H        0.927     0.094     1.837     2.119
     4   1 H        0.927     0.095     1.835     2.118
     5   1 H        0.927     0.095     1.836     2.119
     6   9 F        0.122    -0.733    19.042     5.084

Wiberg/Mayer (AO) data.
largest (>0.10) Wiberg bond orders for each atom

     #   Z sym  total        # sym  WBO       # sym  WBO       # sym  WBO
 ---------------------------------------------------------------------------
     1   6 C    3.878 --     3 H    0.989     5 H    0.989     4 H    0.989
                             2 Cl   0.563     6 F    0.347
     2  17 Cl   0.681 --     1 C    0.563     6 F    0.116
     3   1 H    0.991 --     1 C    0.989
     4   1 H    0.991 --     1 C    0.989
     5   1 H    0.991 --     1 C    0.989
     6   9 F    0.462 --     1 C    0.347     2 Cl   0.116
 ---------------------------------------------------------------------------

molecular dipole:
                 x           y           z       tot (Debye)
 q only:       -8.293       0.072      -0.029
   full:       -8.395       0.067      -0.028      21.338

           -------------------------------------------------
          | TOTAL ENERGY              -13.245643399271 Eh   |
          | GRADIENT NORM               0.000680589858 Eh/α |
          | HOMO-LUMO GAP               3.565288259120 eV   |
           -------------------------------------------------

 * finished run on 2024/05/31 at 17:48:55.101
