   * xtb version 6.3.3 (71d3805) compiled by 'conda@b85dec0bf610' on 2021-01-07
          program call               : /home/thijs/miniconda3/envs/ts-tools/bin/xtb path_opt1_xtb.xyz --chrg -1 --uhf 0 --opt --gbsa Water --input xcontrol_path_opt1_xtb
          number of atoms            :                     6
          number of electrons        :                    22
          charge                     :                    -1

   ID    Z sym.   atoms
    1    6 C      1
    2   17 Cl     2
    3    1 H      3-5
    4    9 F      6
constraining bond 1 6 to    2.9314000 Å, actual value:    3.2313515 Å
constraining bond 1 2 to    2.0360000 Å, actual value:    1.9778271 Å

        Solvent                        Water
        Solvent mass                       1.8000E+01 g/mol
          :  Hamiltonian                  GFN2-xTB          :
 * total energy  :   -12.5954218 Eh     change       -0.1476224E-09 Eh
 * total energy  :   -12.9742699 Eh     change       -0.3788482E+00 Eh
 * total energy  :   -13.2540112 Eh     change       -0.2797412E+00 Eh
 * total energy  :   -13.2563251 Eh     change       -0.2313953E-02 Eh
 * total energy  :   -13.2565680 Eh     change       -0.2428536E-03 Eh
 * total energy  :   -13.2565150 Eh     change        0.5292768E-04 Eh
 * total energy  :   -13.2565772 Eh     change       -0.6215240E-04 Eh
 * total energy  :   -13.2565772 Eh     change        0.9197604E-08 Eh
 * total energy  :   -13.2565770 Eh     change        0.1385403E-06 Eh
 * total energy  :   -13.2565772 Eh     change       -0.1898401E-06 Eh
   *** GEOMETRY OPTIMIZATION CONVERGED AFTER 10 ITERATIONS ***

 final structure:
================
6
 xtb: 6.3.3 (71d3805)
C         4.87407044446540   -0.01456936105312    0.00207143834742
Cl        6.90068362832164    0.08121422508680   -0.00933874880901
H         4.63226151478887   -0.56164421793769   -0.89199573392369
H         4.64071308947156   -0.53427933496397    0.91450960168334
H         4.56219226889949    1.01483357609849   -0.01180505410050
F         1.94616905405304   -0.15395488723052    0.03992849680244

          :  Hamiltonian                  GFN2-xTB          :
         :: total energy             -13.256577237829 Eh    ::
         :: gradient norm              0.000182843343 Eh/a0 ::
         :: HOMO-LUMO gap              2.320740950992 eV    ::
         :: SCC energy               -13.313877937415 Eh    ::
         :: -> dispersion             -0.001852574852 Eh    ::
         :: -> Gsolv                  -0.134066657942 Eh    ::
         :: repulsion energy           0.056942089060 Eh    ::

    * Orbital Energies and Occupations

         #    Occupation            Energy/Eh            Energy/eV
      -------------------------------------------------------------
         1        2.0000           -1.0484320             -28.5293
         2        2.0000           -0.6008695             -16.3505
         3        2.0000           -0.5913694             -16.0920
         4        2.0000           -0.5013768             -13.6432
         5        2.0000           -0.5013369             -13.6421
         6        2.0000           -0.4746370             -12.9155
         7        2.0000           -0.4186892             -11.3931
         8        2.0000           -0.4186873             -11.3931
         9        2.0000           -0.3350024              -9.1159
        10        2.0000           -0.3341403              -9.0924
        11        2.0000           -0.3341394              -9.0924 (HOMO)
        12                         -0.2488537              -6.7717 (LUMO)
        13                          0.0317940               0.8652
        14                          0.0318030               0.8654
        15                          0.0334114               0.9092
        16                          0.0334183               0.9094
        17                          0.0605872               1.6487
        18                          0.1441980               3.9238
        19                          0.2384060               6.4874
        20                          0.2384721               6.4892
      -------------------------------------------------------------
                  HL-Gap            0.0852857 Eh            2.3207 eV

     #   Z          covCN         q      C6AA      α(0)
     1   6 C        3.590    -0.023    21.655     6.743
     2  17 Cl       0.812    -0.277   107.876    15.889
     3   1 H        0.926     0.098     1.807     2.102
     4   1 H        0.926     0.098     1.808     2.102
     5   1 H        0.926     0.098     1.807     2.102
     6   9 F        0.000    -0.993    24.363     5.749

Wiberg/Mayer (AO) data.
largest (>0.10) Wiberg bond orders for each atom

     #   Z sym  total        # sym  WBO       # sym  WBO       # sym  WBO
 ---------------------------------------------------------------------------
     1   6 C    3.888 --     4 H    0.987     3 H    0.987     5 H    0.987
                             2 Cl   0.917
     2  17 Cl   0.931 --     1 C    0.917
     3   1 H    0.990 --     1 C    0.987
     4   1 H    0.990 --     1 C    0.987
     5   1 H    0.990 --     1 C    0.987
     6   9 F    0.015 -- ---------------------------------------------------------------------------

Topologies differ in total number of bonds
Writing topology from bond orders to xtbtopo.mol

molecular dipole:
                 x           y           z       tot (Debye)
 q only:       -4.924       0.232      -0.068
   full:       -5.054       0.226      -0.066      12.860
molecular quadrupole (traceless):
                xx          xy          yy          xz          yz          zz
 q only:      -40.772       0.534      20.322      -0.291       0.034      20.450
  q+dip:      -44.514       0.358      22.191      -0.243       0.035      22.323
   full:      -43.528       0.428      21.700      -0.251       0.035      21.828

           -------------------------------------------------

           -------------------------------------------------
          | TOTAL ENERGY              -13.256577237829 Eh   |
          | GRADIENT NORM               0.000182843343 Eh/α |
          | HOMO-LUMO GAP               2.320740950992 eV   |
           -------------------------------------------------

 * finished run on 2024/05/31 at 17:48:54.593
