   * xtb version 6.3.3 (71d3805) compiled by 'conda@b85dec0bf610' on 2021-01-07
          program call               : /home/thijs/miniconda3/envs/ts-tools/bin/xtb path_opt0_xtb.xyz --chrg -1 --uhf 0 --opt --gbsa Water --input xcontrol_path_opt0_xtb
          number of atoms            :                     6
          number of electrons        :                    22
          charge                     :                    -1

   ID    Z sym.   atoms
    1    6 C      1
    2   17 Cl     2
    3    1 H      3-5
    4    9 F      6
constraining bond 1 6 to    3.2313000 Å, actual value:    3.4312451 Å
constraining bond 1 2 to    1.9843000 Å, actual value:    1.7832406 Å

        Solvent                        Water
        Solvent mass                       1.8000E+01 g/mol
          :  Hamiltonian                  GFN2-xTB          :
 * total energy  :   -12.6996318 Eh     change       -0.8872370E-10 Eh
 * total energy  :   -12.9448692 Eh     change       -0.2452374E+00 Eh
 * total energy  :   -13.2596501 Eh     change       -0.3147808E+00 Eh
 * total energy  :   -13.2611818 Eh     change       -0.1531692E-02 Eh
 * total energy  :   -13.2614656 Eh     change       -0.2838496E-03 Eh
 * total energy  :   -13.2603790 Eh     change        0.1086551E-02 Eh
 * total energy  :   -13.2617662 Eh     change       -0.1387171E-02 Eh
 * total energy  :   -13.2618106 Eh     change       -0.4440772E-04 Eh
 * total energy  :   -13.2616313 Eh     change        0.1793086E-03 Eh
 * total energy  :   -13.2618707 Eh     change       -0.2394105E-03 Eh
 * total energy  :   -13.2618750 Eh     change       -0.4280611E-05 Eh
 * total energy  :   -13.2618758 Eh     change       -0.8136244E-06 Eh
   *** GEOMETRY OPTIMIZATION CONVERGED AFTER 12 ITERATIONS ***

 final structure:
================
6
 xtb: 6.3.3 (71d3805)
C         4.94050507472666   -0.01147112968374    0.00139411937065
Cl        6.91609391883235    0.08212436967988   -0.00978058959622
H         4.68237866270832   -0.55797388715957   -0.89029843118449
H         4.69089444472085   -0.53064480479360    0.91162811070100
H         4.61314189072644    1.01470611139092   -0.01232318154257
F         1.71307600828538   -0.16515065943388    0.04274997225163

          :  Hamiltonian                  GFN2-xTB          :
         :: total energy             -13.261875824999 Eh    ::
         :: gradient norm              0.000091777574 Eh/a0 ::
         :: HOMO-LUMO gap              2.710846065493 eV    ::
         :: SCC energy               -13.318748130581 Eh    ::
         :: -> dispersion             -0.001784789491 Eh    ::
         :: -> Gsolv                  -0.137922227671 Eh    ::
         :: repulsion energy           0.056574868722 Eh    ::

    * Orbital Energies and Occupations

         #    Occupation            Energy/Eh            Energy/eV
      -------------------------------------------------------------
         1        2.0000           -1.0509291             -28.5972
         2        2.0000           -0.6038807             -16.4324
         3        2.0000           -0.5911090             -16.0849
         4        2.0000           -0.5040013             -13.7146
         5        2.0000           -0.5039645             -13.7136
         6        2.0000           -0.4815730             -13.1043
         7        2.0000           -0.4200287             -11.4296
         8        2.0000           -0.4200276             -11.4295
         9        2.0000           -0.3350268              -9.1165
        10        2.0000           -0.3344243              -9.1001
        11        2.0000           -0.3344237              -9.1001 (HOMO)
        12                         -0.2348020              -6.3893 (LUMO)
        13                          0.0277929               0.7563
        14                          0.0278029               0.7566
        15                          0.0297863               0.8105
        16                          0.0297934               0.8107
        17                          0.0651796               1.7736
        18                          0.1454451               3.9578
        19                          0.2319738               6.3123
        20                          0.2321000               6.3158
      -------------------------------------------------------------
                  HL-Gap            0.0996218 Eh            2.7108 eV

     #   Z          covCN         q      C6AA      α(0)
     1   6 C        3.619    -0.028    21.555     6.696
     2  17 Cl       0.841    -0.256   107.201    15.839
     3   1 H        0.926     0.094     1.838     2.120
     4   1 H        0.926     0.094     1.840     2.121
     5   1 H        0.926     0.094     1.839     2.121
     6   9 F        0.000    -0.999    24.509     5.766

Wiberg/Mayer (AO) data.
largest (>0.10) Wiberg bond orders for each atom

     #   Z sym  total        # sym  WBO       # sym  WBO       # sym  WBO
 ---------------------------------------------------------------------------
     1   6 C    3.899 --     4 H    0.988     5 H    0.988     3 H    0.988
                             2 Cl   0.934
     2  17 Cl   0.945 --     1 C    0.934
     3   1 H    0.991 --     1 C    0.988
     4   1 H    0.991 --     1 C    0.988
     5   1 H    0.991 --     1 C    0.988
     6   9 F    0.002 -- ---------------------------------------------------------------------------

Topologies differ in total number of bonds
Writing topology from bond orders to xtbtopo.mol

molecular dipole:
                 x           y           z       tot (Debye)
 q only:       -4.347       0.260      -0.075
   full:       -4.483       0.253      -0.072      11.413
molecular quadrupole (traceless):
                xx          xy          yy          xz          yz          zz
 q only:      -35.125       0.533      17.490      -0.279       0.040      17.636
  q+dip:      -39.150       0.341      19.500      -0.229       0.041      19.650
   full:      -38.147       0.412      19.000      -0.237       0.040      19.147

           -------------------------------------------------

           -------------------------------------------------
          | TOTAL ENERGY              -13.261875824999 Eh   |
          | GRADIENT NORM               0.000091777574 Eh/α |
          | HOMO-LUMO GAP               2.710846065493 eV   |
           -------------------------------------------------

 * finished run on 2024/05/31 at 17:48:54.427
