   * xtb version 6.3.3 (71d3805) compiled by 'conda@b85dec0bf610' on 2021-01-07
          program call               : /home/thijs/miniconda3/envs/ts-tools/bin/xtb path_opt2_xtb.xyz --chrg -1 --uhf 0 --opt --gbsa Water --input xcontrol_path_opt2_xtb
          number of atoms            :                     6
          number of electrons        :                    22
          charge                     :                    -1

   ID    Z sym.   atoms
    1    6 C      1
    2   17 Cl     2
    3    1 H      3-5
    4    9 F      6
constraining bond 1 6 to    2.6316000 Å, actual value:    2.9314601 Å
constraining bond 1 2 to    2.0830000 Å, actual value:    2.0289042 Å

        Solvent                        Water
        Solvent mass                       1.8000E+01 g/mol
          :  Hamiltonian                  GFN2-xTB          :
 * total energy  :   -12.5938441 Eh     change       -0.5099032E-10 Eh
 * total energy  :   -12.9768268 Eh     change       -0.3829828E+00 Eh
 * total energy  :   -13.2493910 Eh     change       -0.2725641E+00 Eh
 * total energy  :   -13.2514102 Eh     change       -0.2019220E-02 Eh
 * total energy  :   -13.2516020 Eh     change       -0.1918162E-03 Eh
 * total energy  :   -13.2515663 Eh     change        0.3571507E-04 Eh
 * total energy  :   -13.2516100 Eh     change       -0.4374821E-04 Eh
 * total energy  :   -13.2516100 Eh     change       -0.1925271E-07 Eh
   *** GEOMETRY OPTIMIZATION CONVERGED AFTER 8 ITERATIONS ***

 final structure:
================
6
 xtb: 6.3.3 (71d3805)
C         4.80637952441988   -0.01775123076719    0.00274098188176
Cl        6.88009710853301    0.08023150534761   -0.00887131542725
H         4.58420009001111   -0.56567180777147   -0.89414349906478
H         4.59342132335179   -0.53821916626796    0.91801330211170
H         4.51400359772410    1.01582039736442   -0.01122439305072
F         2.17797835596011   -0.14280969790540    0.03684492354929

          :  Hamiltonian                  GFN2-xTB          :
         :: total energy             -13.251610047638 Eh    ::
         :: gradient norm              0.000209653328 Eh/a0 ::
         :: HOMO-LUMO gap              2.192821235361 eV    ::
         :: SCC energy               -13.309344102783 Eh    ::
         :: -> dispersion             -0.001916063748 Eh    ::
         :: -> Gsolv                  -0.126345602706 Eh    ::
         :: repulsion energy           0.057390871798 Eh    ::

    * Orbital Energies and Occupations

         #    Occupation            Energy/Eh            Energy/eV
      -------------------------------------------------------------
         1        2.0000           -1.0441471             -28.4127
         2        2.0000           -0.5992589             -16.3067
         3        2.0000           -0.5945795             -16.1793
         4        2.0000           -0.4977967             -13.5457
         5        2.0000           -0.4977508             -13.5445
         6        2.0000           -0.4656213             -12.6702
         7        2.0000           -0.4150700             -11.2946
         8        2.0000           -0.4150673             -11.2946
         9        2.0000           -0.3387831              -9.2188
        10        2.0000           -0.3373741              -9.1804
        11        2.0000           -0.3373732              -9.1804 (HOMO)
        12                         -0.2567885              -6.9876 (LUMO)
        13                          0.0388331               1.0567
        14                          0.0388394               1.0569
        15                          0.0401045               1.0913
        16                          0.0401110               1.0915
        17                          0.0613446               1.6693
        18                          0.1431439               3.8951
        19                          0.2467041               6.7132
        20                          0.2468033               6.7159
      -------------------------------------------------------------
                  HL-Gap            0.0805847 Eh            2.1928 eV

     #   Z          covCN         q      C6AA      α(0)
     1   6 C        3.554    -0.015    21.818     6.822
     2  17 Cl       0.775    -0.317   109.171    15.983
     3   1 H        0.926     0.099     1.798     2.097
     4   1 H        0.926     0.099     1.798     2.097
     5   1 H        0.926     0.099     1.797     2.097
     6   9 F        0.000    -0.963    23.691     5.669

Wiberg/Mayer (AO) data.
largest (>0.10) Wiberg bond orders for each atom

     #   Z sym  total        # sym  WBO       # sym  WBO       # sym  WBO
 ---------------------------------------------------------------------------
     1   6 C    3.881 --     3 H    0.987     5 H    0.987     4 H    0.987
                             2 Cl   0.873
     2  17 Cl   0.906 --     1 C    0.873
     3   1 H    0.990 --     1 C    0.987
     4   1 H    0.990 --     1 C    0.987
     5   1 H    0.990 --     1 C    0.987
     6   9 F    0.072 -- ---------------------------------------------------------------------------

Topologies differ in total number of bonds
Writing topology from bond orders to xtbtopo.mol

molecular dipole:
                 x           y           z       tot (Debye)
 q only:       -5.677       0.196      -0.059
   full:       -5.815       0.189      -0.057      14.790
molecular quadrupole (traceless):
                xx          xy          yy          xz          yz          zz
 q only:      -49.740       0.421      24.815      -0.275       0.028      24.925
  q+dip:      -53.662       0.237      26.775      -0.227       0.029      26.887
   full:      -52.693       0.306      26.292      -0.236       0.029      26.401

           -------------------------------------------------

           -------------------------------------------------
          | TOTAL ENERGY              -13.251610047638 Eh   |
          | GRADIENT NORM               0.000209653328 Eh/α |
          | HOMO-LUMO GAP               2.192821235361 eV   |
           -------------------------------------------------

 * finished run on 2024/05/31 at 17:48:54.761
