   * xtb version 6.3.3 (71d3805) compiled by 'conda@b85dec0bf610' on 2021-01-07
          program call               : /home/thijs/miniconda3/envs/ts-tools/bin/xtb path_opt-1_xtb.xyz --chrg -1 --uhf 0 --opt --gbsa Water --input xcontrol_path_opt-1_xtb
          number of atoms            :                     6
          number of electrons        :                    22
          charge                     :                    -1

   ID    Z sym.   atoms
    1    6 C      1
    2   17 Cl     2
    3    1 H      3-5
    4    9 F      6
constraining bond 1 6 to    3.4313000 Å, actual value:    3.4312622 Å
constraining bond 1 2 to    1.7843000 Å, actual value:    1.7842714 Å

        Solvent                        Water
        Solvent mass                       1.8000E+01 g/mol
          :  Hamiltonian                  GFN2-xTB          :
 * total energy  :   -13.2735612 Eh     change       -0.9542056E-10 Eh
 * total energy  :   -13.2738537 Eh     change       -0.2924975E-03 Eh
 * total energy  :   -13.2738574 Eh     change       -0.3714833E-05 Eh
 * total energy  :   -13.2738719 Eh     change       -0.1452307E-04 Eh
 * total energy  :   -13.2738720 Eh     change       -0.1331756E-06 Eh
   *** GEOMETRY OPTIMIZATION CONVERGED AFTER 5 ITERATIONS ***

 final structure:
================
6
 xtb: 6.3.3 (71d3805)
C         5.03846955547396   -0.00675631983995    0.00067768861079
Cl        6.81970194464006    0.07731345671227   -0.00925778330605
H         4.71555070555588   -0.54999363701234   -0.88024051448631
H         4.72401974252497   -0.52302876088885    0.90067406300729
H         4.64696390252908    1.00416857195846   -0.01255075600543
F         1.61139414927604   -0.17011331092959    0.04406730217970

          :  Hamiltonian                  GFN2-xTB          :
         :: total energy             -13.273872021571 Eh    ::
         :: gradient norm              0.000837808035 Eh/a0 ::
         :: HOMO-LUMO gap              4.545816528453 eV    ::
         :: SCC energy               -13.330586567782 Eh    ::
         :: -> dispersion             -0.001804719218 Eh    ::
         :: -> Gsolv                  -0.140464393444 Eh    ::
         :: repulsion energy           0.056707450612 Eh    ::

    * Orbital Energies and Occupations

         #    Occupation            Energy/Eh            Energy/eV
      -------------------------------------------------------------
         1        2.0000           -1.0580234             -28.7903
         2        2.0000           -0.6130748             -16.6826
         3        2.0000           -0.5939833             -16.1631
         4        2.0000           -0.5136205             -13.9763
         5        2.0000           -0.5135984             -13.9757
         6        2.0000           -0.5008829             -13.6297
         7        2.0000           -0.4203568             -11.4385
         8        2.0000           -0.4203566             -11.4385
         9        2.0000           -0.3377845              -9.1916
        10        2.0000           -0.3373640              -9.1801
        11        2.0000           -0.3373637              -9.1801 (HOMO)
        12                         -0.1703080              -4.6343 (LUMO)
        13                          0.0180386               0.4909
        14                          0.0180526               0.4912
        15                          0.0221924               0.6039
        16                          0.0222037               0.6042
        17                          0.1264332               3.4404
        18                          0.1625936               4.4244
        19                          0.2120668               5.7706
        20                          0.2121339               5.7725
      -------------------------------------------------------------
                  HL-Gap            0.1670557 Eh            4.5458 eV

     #   Z          covCN         q      C6AA      α(0)
     1   6 C        3.663    -0.008    21.001     6.574
     2  17 Cl       0.888    -0.208   105.666    15.726
     3   1 H        0.925     0.072     2.063     2.246
     4   1 H        0.925     0.072     2.066     2.248
     5   1 H        0.925     0.072     2.064     2.247
     6   9 F        0.000    -1.000    24.532     5.769

Wiberg/Mayer (AO) data.
largest (>0.10) Wiberg bond orders for each atom

     #   Z sym  total        # sym  WBO       # sym  WBO       # sym  WBO
 ---------------------------------------------------------------------------
     1   6 C    3.928 --     4 H    0.988     5 H    0.988     3 H    0.988
                             2 Cl   0.964
     2  17 Cl   0.984 --     1 C    0.964
     3   1 H    0.995 --     1 C    0.988
     4   1 H    0.995 --     1 C    0.988
     5   1 H    0.995 --     1 C    0.988
     6   9 F    0.000 -- ---------------------------------------------------------------------------

Topologies differ in total number of bonds
Writing topology from bond orders to xtbtopo.mol

molecular dipole:
                 x           y           z       tot (Debye)
 q only:       -3.885       0.282      -0.079
   full:       -4.281       0.263      -0.075      10.903
molecular quadrupole (traceless):
                xx          xy          yy          xz          yz          zz
 q only:      -27.864       0.731      13.856      -0.298       0.042      14.008
  q+dip:      -38.820       0.227      19.329      -0.209       0.043      19.491
   full:      -37.732       0.304      18.787      -0.218       0.043      18.945

           -------------------------------------------------

           -------------------------------------------------
          | TOTAL ENERGY              -13.273872021571 Eh   |
          | GRADIENT NORM               0.000837808035 Eh/α |
          | HOMO-LUMO GAP               4.545816528453 eV   |
           -------------------------------------------------

 * finished run on 2024/05/31 at 17:48:54.240
