   * xtb version 6.3.3 (71d3805) compiled by 'conda@b85dec0bf610' on 2021-01-07
          program call               : /home/thijs/miniconda3/envs/ts-tools/bin/xtb path_opt5_xtb.xyz --chrg -1 --uhf 0 --opt --gbsa Water --input xcontrol_path_opt5_xtb
          number of atoms            :                     6
          number of electrons        :                    22
          charge                     :                    -1

   ID    Z sym.   atoms
    1    6 C      1
    2   17 Cl     2
    3    1 H      3-5
    4    9 F      6
constraining bond 1 6 to    1.7307000 Å, actual value:    2.0306845 Å
constraining bond 1 2 to    2.4042000 Å, actual value:    2.1948814 Å

        Solvent                        Water
        Solvent mass                       1.8000E+01 g/mol
          :  Hamiltonian                  GFN2-xTB          :
 * total energy  :   -12.2900333 Eh     change       -0.1593925E-10 Eh
 * total energy  :   -13.0073369 Eh     change       -0.7173036E+00 Eh
 * total energy  :   -13.2537726 Eh     change       -0.2464357E+00 Eh
 * total energy  :   -13.2545371 Eh     change       -0.7645406E-03 Eh
 * total energy  :   -13.2546186 Eh     change       -0.8149183E-04 Eh
 * total energy  :   -13.2545215 Eh     change        0.9706836E-04 Eh
 * total energy  :   -13.2546553 Eh     change       -0.1337637E-03 Eh
 * total energy  :   -13.2546464 Eh     change        0.8885088E-05 Eh
 * total energy  :   -13.2546555 Eh     change       -0.9117255E-05 Eh
 * total energy  :   -13.2546559 Eh     change       -0.3144356E-06 Eh
   *** GEOMETRY OPTIMIZATION CONVERGED AFTER 10 ITERATIONS ***

 final structure:
================
6
 xtb: 6.3.3 (71d3805)
C         4.41096181725144   -0.03624405185960    0.00735348353173
Cl        6.81411330434760    0.07657357720578   -0.00895394564347
H         4.56587672530741   -0.57508802331027   -0.90669328829841
H         4.58200579972139   -0.54718953364977    0.93473638500549
H         4.49653041624349    1.03206174028968   -0.00976384068218
F         2.68659193712867   -0.11852370867582    0.02670120608684

          :  Hamiltonian                  GFN2-xTB          :
         :: total energy             -13.254655858983 Eh    ::
         :: gradient norm              0.000863354156 Eh/a0 ::
         :: HOMO-LUMO gap              4.748374467520 eV    ::
         :: SCC energy               -13.312989445286 Eh    ::
         :: -> dispersion             -0.001910712327 Eh    ::
         :: -> Gsolv                  -0.091087438927 Eh    ::
         :: repulsion energy           0.058184545653 Eh    ::

    * Orbital Energies and Occupations

         #    Occupation            Energy/Eh            Energy/eV
      -------------------------------------------------------------
         1        2.0000           -0.9963249             -27.1114
         2        2.0000           -0.7341631             -19.9776
         3        2.0000           -0.5906438             -16.0722
         4        2.0000           -0.5011695             -13.6375
         5        2.0000           -0.5010880             -13.6353
         6        2.0000           -0.4782813             -13.0147
         7        2.0000           -0.4325345             -11.7699
         8        2.0000           -0.4325233             -11.7696
         9        2.0000           -0.3867337             -10.5236
        10        2.0000           -0.3867273             -10.5234
        11        2.0000           -0.3858567             -10.4997 (HOMO)
        12                         -0.2113572              -5.7513 (LUMO)
        13                          0.1095407               2.9808
        14                          0.1204512               3.2776
        15                          0.1204675               3.2781
        16                          0.1217149               3.3120
        17                          0.1217160               3.3121
        18                          0.1338267               3.6416
        19                          0.2639243               7.1817
        20                          0.2650316               7.2119
      -------------------------------------------------------------
                  HL-Gap            0.1744996 Eh            4.7484 eV

     #   Z          covCN         q      C6AA      α(0)
     1   6 C        3.691     0.050    19.909     6.385
     2  17 Cl       0.310    -0.868   122.876    16.883
     3   1 H        0.926     0.099     1.794     2.094
     4   1 H        0.926     0.099     1.793     2.094
     5   1 H        0.926     0.099     1.793     2.094
     6   9 F        0.602    -0.480    14.617     4.509

Wiberg/Mayer (AO) data.
largest (>0.10) Wiberg bond orders for each atom

     #   Z sym  total        # sym  WBO       # sym  WBO       # sym  WBO
 ---------------------------------------------------------------------------
     1   6 C    3.837 --     5 H    0.987     3 H    0.987     4 H    0.987
                             6 F    0.697     2 Cl   0.179
     2  17 Cl   0.247 --     1 C    0.179
     3   1 H    0.990 --     1 C    0.987
     4   1 H    0.990 --     1 C    0.987
     5   1 H    0.990 --     1 C    0.987
     6   9 F    0.773 --     1 C    0.697
 ---------------------------------------------------------------------------

molecular dipole:
                 x           y           z       tot (Debye)
 q only:      -10.636      -0.038      -0.005
   full:      -10.559      -0.035      -0.006      26.839

           -------------------------------------------------
          | TOTAL ENERGY              -13.254655858983 Eh   |
          | GRADIENT NORM               0.000863354156 Eh/α |
          | HOMO-LUMO GAP               4.748374467520 eV   |
           -------------------------------------------------

 * finished run on 2024/05/31 at 17:48:55.276
