 Gaussian 16, Revision C.01,
 Gaussian 16:  ES64L-G16RevC.01  3-Jul-2019

 ----------------------------------------------------------------------
 # PBE1PBE Def2SVP Opt EmpiricalDispersion=GD3BJ NoSymm scrf=(smd,solve
 nt=Water)
 ----------------------------------------------------------------------

 ---------------
 p0_CFH3_opt_g16
 ---------------
 Symbolic Z-matrix:
 Charge =  0 Multiplicity = 1

 SCF Done:  E(RPBE1PBE) =  -139.483758259     A.U. after    9 cycles
 SCF Done:  E(RPBE1PBE) =  -139.483762770     A.U. after    7 cycles
 SCF Done:  E(RPBE1PBE) =  -139.483763647     A.U. after    7 cycles
 Optimization completed.
    -- Stationary point found.

                          Input orientation:
 ---------------------------------------------------------------------
 Center     Atomic      Atomic             Coordinates (Angstroms)
 Number     Number       Type             X           Y           Z
 ---------------------------------------------------------------------
      1          6           0       -0.053336    0.004921   -0.002926
      2          9           0        1.315689   -0.121261    0.071878
      3          1           0       -0.310288    0.920039   -0.559237
      4          1           0       -0.477223   -0.868771   -0.522423
      5          1           0       -0.474943    0.065173    1.012708
 ---------------------------------------------------------------------

 Alpha  occ. eigenvalues --  -24.74500 -10.28922  -1.19486  -0.69577  -0.49539
 Alpha  occ. eigenvalues --   -0.48451  -0.48451  -0.34469  -0.34469
 Alpha virt. eigenvalues --    0.10023   0.14100   0.15941   0.15942   0.47284
 Alpha virt. eigenvalues --    0.47285   0.49708   0.66203   0.67362   0.67363
 Alpha virt. eigenvalues --    0.68745   1.08315   1.08316   1.17319   1.38685

 Mulliken charges:
               1
     1  C    0.150749
     2  F   -0.326907
     3  H    0.058733
     4  H    0.058733
     5  H    0.058692
 Sum of Mulliken charges =  -0.00000

 Dipole moment (field-independent basis, Debye):
    X=             -2.1107    Y=              0.1946    Z=             -0.1153  Tot=              2.1227
 Quadrupole moment (field-independent basis, Debye-Ang):
   XX=            -14.4227   YY=            -11.5926   ZZ=            -11.5772
   XY=              0.2631   XZ=             -0.1558   YZ=              0.0143

 Normal termination of Gaussian 16 at Fri May 31 17:48:38 2024.
