 Gaussian 16, Revision C.01,
 Gaussian 16:  ES64L-G16RevC.01  3-Jul-2019

 ----------------------------------------------------------------------
 # PBE1PBE Def2SVP EmpiricalDispersion=GD3BJ NoSymm scrf=(smd,solvent=W
 ater)
 ----------------------------------------------------------------------

 -------------
 p1_Cl_opt_g16
 -------------
 Symbolic Z-matrix:
 Charge = -1 Multiplicity = 1

                          Input orientation:
 ---------------------------------------------------------------------
 Center     Atomic      Atomic             Coordinates (Angstroms)
 Number     Number       Type             X           Y           Z
 ---------------------------------------------------------------------
      1         17           0        0.001000    0.001000    0.001000
 ---------------------------------------------------------------------

 SCF Done:  E(RPBE1PBE) =  -460.036709911     A.U. after    6 cycles

 Alpha  occ. eigenvalues -- -101.47693  -9.32552  -7.06094  -7.06094  -7.06094
 Alpha  occ. eigenvalues --   -0.63095  -0.17530  -0.17530  -0.17530
 Alpha virt. eigenvalues --    0.57350   0.96256   0.96256   0.96256   0.96256
 Alpha virt. eigenvalues --    0.96256   1.02835   1.02835   1.02835

 Mulliken charges:
               1
     1  Cl  -1.000000
 Sum of Mulliken charges =  -1.00000

 Dipole moment (field-independent basis, Debye):
    X=             -0.0048    Y=             -0.0048    Z=             -0.0048  Tot=              0.0083
 Quadrupole moment (field-independent basis, Debye-Ang):
   XX=            -14.6390   YY=            -14.6390   ZZ=            -14.6390
   XY=             -0.0000   XZ=             -0.0000   YZ=             -0.0000

 Normal termination of Gaussian 16 at Fri May 31 17:48:51 2024.
