 Gaussian 16, Revision C.01,
 Gaussian 16:  ES64L-G16RevC.01  3-Jul-2019

 ----------------------------------------------------------------------
 # PBE1PBE Def2SVP Opt EmpiricalDispersion=GD3BJ NoSymm scrf=(smd,solve
 nt=Water)
 ----------------------------------------------------------------------

 ----------------
 r0_CClH3_opt_g16
 ----------------
 Symbolic Z-matrix:
 Charge =  0 Multiplicity = 1

 SCF Done:  E(RPBE1PBE) =  -499.730898019     A.U. after    9 cycles
 SCF Done:  E(RPBE1PBE) =  -499.730910993     A.U. after    7 cycles
 SCF Done:  E(RPBE1PBE) =  -499.730914234     A.U. after    7 cycles
 Optimization completed.
    -- Stationary point found.

                          Input orientation:
 ---------------------------------------------------------------------
 Center     Atomic      Atomic             Coordinates (Angstroms)
 Number     Number       Type             X           Y           Z
 ---------------------------------------------------------------------
      1          6           0       -0.145006   -0.006969    0.000908
      2         17           0        1.637159    0.078917   -0.009930
      3          1           0       -0.477124   -0.556063   -0.888477
      4          1           0       -0.467477   -0.528942    0.909949
      5          1           0       -0.547653    1.013058   -0.012349
 ---------------------------------------------------------------------

 Alpha  occ. eigenvalues -- -101.65907 -10.27322  -9.51105  -7.25247  -7.24245
 Alpha  occ. eigenvalues --   -7.24245  -0.86206  -0.67273  -0.44433  -0.44432
 Alpha  occ. eigenvalues --   -0.41670  -0.29917  -0.29916
 Alpha virt. eigenvalues --    0.06049   0.10736   0.14908   0.14909   0.42486
 Alpha virt. eigenvalues --    0.44065   0.44070   0.53818   0.66700   0.67765
 Alpha virt. eigenvalues --    0.67765   0.79139   0.79141   0.80570   0.81956

 Mulliken charges:
               1
     1  C   -0.090691
     2  Cl  -0.242634
     3  H    0.111123
     4  H    0.111140
     5  H    0.111061
 Sum of Mulliken charges =   0.00000

 Dipole moment (field-independent basis, Debye):
    X=             -2.3580    Y=             -0.1137    Z=              0.0144  Tot=              2.3608
 Quadrupole moment (field-independent basis, Debye-Ang):
   XX=            -22.1726   YY=            -19.3656   ZZ=            -19.3580
   XY=             -0.1359   XZ=              0.0171   YZ=              0.0007

 Normal termination of Gaussian 16 at Fri May 31 17:48:05 2024.
