 Gaussian 16, Revision C.01,
 Gaussian 16:  ES64L-G16RevC.01  3-Jul-2019

 ----------------------------------------------------------------------
 # PBE1PBE Def2SVP EmpiricalDispersion=GD3BJ NoSymm scrf=(smd,solvent=W
 ater)
 ----------------------------------------------------------------------

 ------------
 r1_F_opt_g16
 ------------
 Symbolic Z-matrix:
 Charge = -1 Multiplicity = 1

                          Input orientation:
 ---------------------------------------------------------------------
 Center     Atomic      Atomic             Coordinates (Angstroms)
 Number     Number       Type             X           Y           Z
 ---------------------------------------------------------------------
      1          9           0        0.001000    0.001000    0.001000
 ---------------------------------------------------------------------

 SCF Done:  E(RPBE1PBE) =  -99.7428273034     A.U. after    6 cycles

 Alpha  occ. eigenvalues --  -24.46678  -0.86696  -0.16373  -0.16373  -0.16373
 Alpha virt. eigenvalues --    1.26376   1.34844   1.34844   1.34844   3.35103
 Alpha virt. eigenvalues --    3.35103   3.35103   3.35103   3.35103

 Mulliken charges:
               1
     1  F   -1.000000
 Sum of Mulliken charges =  -1.00000

 Dipole moment (field-independent basis, Debye):
    X=             -0.0048    Y=             -0.0048    Z=             -0.0048  Tot=              0.0083
 Quadrupole moment (field-independent basis, Debye-Ang):
   XX=             -5.8266   YY=             -5.8266   ZZ=             -5.8266
   XY=             -0.0000   XZ=             -0.0000   YZ=             -0.0000

 Normal termination of Gaussian 16 at Fri May 31 17:48:18 2024.
