 Gaussian 16, Revision C.01,
 Gaussian 16:  ES64L-G16RevC.01  3-Jul-2019

 ---------------------------------------------------------------------
 # PBE1PBE Def2TZVP EmpiricalDispersion=GD3BJ scrf=(smd,solvent=Water)
 ---------------------------------------------------------------------

 --------------
 p0_CFH3_sp_g16
 --------------
 Symbolic Z-matrix:
 Charge =  0 Multiplicity = 1

                         Standard orientation:
 ---------------------------------------------------------------------
 Center     Atomic      Atomic             Coordinates (Angstroms)
 Number     Number       Type             X           Y           Z
 ---------------------------------------------------------------------
      1          6           0       -0.626833   -0.000005   -0.000005
      2          9           0        0.750028   -0.000002   -0.000003
      3          1           0       -0.996414    0.941759   -0.435250
      4          1           0       -0.996460   -0.847825   -0.597895
      5          1           0       -0.996385   -0.093892    1.033200
 ---------------------------------------------------------------------

 SCF Done:  E(RPBE1PBE) =  -139.654644727     A.U. after    9 cycles

 The electronic state is 1-A.
 Alpha  occ. eigenvalues --  -24.75412 -10.27886  -1.22706  -0.70923  -0.50552
 Alpha  occ. eigenvalues --   -0.49317  -0.49316  -0.35395  -0.35394
 Alpha virt. eigenvalues --    0.07469   0.09405   0.14215   0.14216   0.22784
 Alpha virt. eigenvalues --    0.22786   0.30723   0.35586   0.46304   0.46305
 Alpha virt. eigenvalues --    0.47894   0.54614   0.59622   0.59622   0.74225

 Mulliken charges:
               1
     1  C   -0.155460
     2  F   -0.277696
     3  H    0.144360
     4  H    0.144385
     5  H    0.144411
 Sum of Mulliken charges =  -0.00000

 Dipole moment (field-independent basis, Debye):
    X=             -2.1797    Y=             -0.0003    Z=              0.0004  Tot=              2.1797
 Quadrupole moment (field-independent basis, Debye-Ang):
   XX=            -12.3014   YY=            -11.7677   ZZ=            -11.7677
   XY=              0.0002   XZ=             -0.0002   YZ=              0.0001

 Normal termination of Gaussian 16 at Fri May 31 17:52:35 2024.
