 Gaussian 16, Revision C.01,
 Gaussian 16:  ES64L-G16RevC.01  3-Jul-2019

 ---------------------------------------------------------------------
 # PBE1PBE Def2TZVP EmpiricalDispersion=GD3BJ scrf=(smd,solvent=Water)
 ---------------------------------------------------------------------

 ------------
 p1_Cl_sp_g16
 ------------
 Symbolic Z-matrix:
 Charge = -1 Multiplicity = 1

                         Standard orientation:
 ---------------------------------------------------------------------
 Center     Atomic      Atomic             Coordinates (Angstroms)
 Number     Number       Type             X           Y           Z
 ---------------------------------------------------------------------
      1         17           0        0.000000    0.000000    0.000000
 ---------------------------------------------------------------------

 SCF Done:  E(RPBE1PBE) =  -460.224557869     A.U. after    7 cycles

 The electronic state is 1-A1G.
 Alpha  occ. eigenvalues -- -101.56041  -9.38568  -7.11442  -7.11442  -7.11442
 Alpha  occ. eigenvalues --   -0.68533  -0.22644  -0.22644  -0.22644
 Alpha virt. eigenvalues --    0.41358   0.41358   0.41358   0.54324   0.54324
 Alpha virt. eigenvalues --    0.54324   0.54324   0.54324   0.61431   1.86284
 Alpha virt. eigenvalues --    1.86284   1.86284   1.86284   1.86284   2.21264

 Mulliken charges:
               1
     1  Cl  -1.000000
 Sum of Mulliken charges =  -1.00000

 Dipole moment (field-independent basis, Debye):
    X=              0.0000    Y=              0.0000    Z=              0.0000  Tot=              0.0000
 Quadrupole moment (field-independent basis, Debye-Ang):
   XX=            -16.0325   YY=            -16.0325   ZZ=            -16.0325
   XY=             -0.0000   XZ=             -0.0000   YZ=             -0.0000

 Normal termination of Gaussian 16 at Fri May 31 17:52:48 2024.
