 Gaussian 16, Revision C.01,
 Gaussian 16:  ES64L-G16RevC.01  3-Jul-2019

 ---------------------------------------------------------------------
 # PBE1PBE Def2TZVP EmpiricalDispersion=GD3BJ scrf=(smd,solvent=Water)
 ---------------------------------------------------------------------

 ---------------
 r0_CClH3_sp_g16
 ---------------
 Symbolic Z-matrix:
 Charge =  0 Multiplicity = 1

                         Standard orientation:
 ---------------------------------------------------------------------
 Center     Atomic      Atomic             Coordinates (Angstroms)
 Number     Number       Type             X           Y           Z
 ---------------------------------------------------------------------
      1          6           0        1.125925    0.000005   -0.000003
      2         17           0       -0.658342   -0.000002    0.000007
      3          1           0        1.478679   -0.831308   -0.622334
      4          1           0        1.478657    0.954624   -0.408760
      5          1           0        1.478924   -0.123318    1.030986
 ---------------------------------------------------------------------

 SCF Done:  E(RPBE1PBE) =  -499.937726679     A.U. after   10 cycles

 The electronic state is 1-A.
 Alpha  occ. eigenvalues -- -101.69193 -10.26479  -9.51780  -7.25193  -7.24355
 Alpha  occ. eigenvalues --   -7.24355  -0.86941  -0.68263  -0.44714  -0.44713
 Alpha  occ. eigenvalues --   -0.42109  -0.30815  -0.30814
 Alpha virt. eigenvalues --    0.03745   0.08098   0.12850   0.12852   0.18915
 Alpha virt. eigenvalues --    0.22970   0.22971   0.29114   0.36021   0.36022
 Alpha virt. eigenvalues --    0.40568   0.41362   0.41363   0.46870   0.46870

 Mulliken charges:
               1
     1  C   -0.326149
     2  Cl  -0.202996
     3  H    0.176368
     4  H    0.176488
     5  H    0.176290
 Sum of Mulliken charges =  -0.00000

 Dipole moment (field-independent basis, Debye):
    X=              2.5198    Y=              0.0004    Z=             -0.0004  Tot=              2.5198
 Quadrupole moment (field-independent basis, Debye-Ang):
   XX=            -17.6849   YY=            -19.7457   ZZ=            -19.7470
   XY=              0.0003   XZ=              0.0001   YZ=             -0.0002

 Normal termination of Gaussian 16 at Fri May 31 17:52:05 2024.
