 Gaussian 16, Revision C.01,
 Gaussian 16:  ES64L-G16RevC.01  3-Jul-2019

 ----------------------------------------------------------------------
 # PBE1PBE Def2TZVP EmpiricalDispersion=GD3BJ Geom=ModRedun scrf=(smd,s
 olvent=Water)
 ----------------------------------------------------------------------

 ------------------------------
 TS_dOr2Us_ll_ad_0-5_0-1_sp_g16
 ------------------------------
 Symbolic Z-matrix:
 Charge = -1 Multiplicity = 1

                         Standard orientation:
 ---------------------------------------------------------------------
 Center     Atomic      Atomic             Coordinates (Angstroms)
 Number     Number       Type             X           Y           Z
 ---------------------------------------------------------------------
      1          6           0       -0.513394   -0.000931    0.001010
      2         17           0        1.618757    0.000271   -0.000272
      3          1           0       -0.617510   -0.609910   -0.888806
      4          1           0       -0.616930   -0.467714    0.973104
      5          1           0       -0.618418    1.074137   -0.080946
      6          9           0       -2.509516    0.000497   -0.000533
 ---------------------------------------------------------------------

 SCF Done:  E(RPBE1PBE) =  -599.839762433     A.U. after   11 cycles

 The electronic state is 1-A.
 Alpha  occ. eigenvalues -- -101.62582 -24.59455 -10.26469  -9.45166  -7.18329
 Alpha  occ. eigenvalues --   -7.17875  -7.17875  -1.02190  -0.77611  -0.66937
 Alpha  occ. eigenvalues --   -0.43443  -0.43436  -0.35185  -0.28670  -0.28669
 Alpha  occ. eigenvalues --   -0.26824  -0.26823  -0.25740
 Alpha virt. eigenvalues --    0.02733   0.08419   0.14251   0.14254   0.23230
 Alpha virt. eigenvalues --    0.23235   0.24891   0.33264   0.40209   0.40209
 Alpha virt. eigenvalues --    0.41809   0.44442   0.44444   0.48720   0.49190

 Mulliken charges:
               1
     1  C   -0.194368
     2  Cl  -0.556621
     3  H    0.175744
     4  H    0.175814
     5  H    0.175833
     6  F   -0.776402
 Sum of Mulliken charges =  -1.00000

 Dipole moment (field-independent basis, Debye):
    X=              3.8043    Y=             -0.0039    Z=              0.0048  Tot=              3.8043
 Quadrupole moment (field-independent basis, Debye-Ang):
   XX=            -58.7948   YY=            -26.8870   ZZ=            -26.8888
   XY=              0.0038   XZ=             -0.0055   YZ=             -0.0002

 1\1\GINC-DALE\SP\RPBE1PBE\def2TZVP\C1H3Cl1F1(1-)\THIJS\31-May-2024\0\\
 # PBE1PBE Def2TZVP EmpiricalDispersion=GD3BJ Geom=ModRedun scrf=(smd,s
 olvent=Water)\\TS_dOr2Us_ll_ad_0-5_0-1_sp_g16\\-1,1\C,0,4.622107,-0.02
 7023,0.007368\Cl,0,6.751719,0.0751,-0.01245\H,0,4.53621,-0.584959,-0.9
 17184\H,0,4.551759,-0.556477,0.949866\H,0,4.466074,1.044867,-0.00757\F
 ,0,2.628211,-0.119918,0.02334\\Version=ES64L-G16RevC.01\State=1-A\HF=-
 599.8397624\RMSD=3.880e-09\Dipole=1.4950825,0.0691426,-0.0112936\Quadr
 upole=-15.7601489,7.8552528,7.9048961,-1.117698,0.2029514,0.0095253\PG

 Normal termination of Gaussian 16 at Fri May 31 17:53:09 2024.
