   * xtb version 6.3.3 (71d3805) compiled by 'conda@b85dec0bf610' on 2021-01-07
          program call               : /home/thijs/miniconda3/envs/ts-tools/bin/xtb p0_CFH3_conf0_opt_xtb.xyz --chrg 0 --uhf 0 --opt --gbsa Water
          number of atoms            :                     5
          number of electrons        :                    14
          charge                     :                     0

   ID    Z sym.   atoms
    1    6 C      1
    2    9 F      2
    3    1 H      3-5

        Solvent                        Water
        Solvent mass                       1.8000E+01 g/mol
          :  Hamiltonian                  GFN2-xTB          :
 * total energy  :    -8.3939761 Eh     change       -0.7803003E-10 Eh
 * total energy  :    -8.3951125 Eh     change       -0.1136380E-02 Eh
 * total energy  :    -8.3951600 Eh     change       -0.4750615E-04 Eh
 * total energy  :    -8.3951619 Eh     change       -0.1896826E-05 Eh
   *** GEOMETRY OPTIMIZATION CONVERGED AFTER 4 ITERATIONS ***

 final structure:
================
5
 xtb: 6.3.3 (71d3805)
C        -0.07771396401900    0.00726558176797   -0.00421893483656
F         1.29095013436924   -0.11903921667874    0.07053267285802
H        -0.29386489389389    0.91914530796963   -0.55885689119583
H        -0.46085220832914   -0.87087726546164   -0.52189787065660
H        -0.45861906812721    0.06360559240278    1.01444102383097

          :  Hamiltonian                  GFN2-xTB          :
         :: total energy              -8.395161896226 Eh    ::
         :: gradient norm              0.000508615601 Eh/a0 ::
         :: HOMO-LUMO gap             13.835878603556 eV    ::
         :: SCC energy                -8.453980545987 Eh    ::
         :: -> dispersion             -0.000763573021 Eh    ::
         :: -> Gsolv                  -0.002561520055 Eh    ::
         :: repulsion energy           0.058818638182 Eh    ::

    * Orbital Energies and Occupations

         #    Occupation            Energy/Eh            Energy/eV
      -------------------------------------------------------------
         1        2.0000           -0.8124075             -22.1067
         2        2.0000           -0.6165773             -16.7779
         3        2.0000           -0.5426990             -14.7676
         4        2.0000           -0.5395190             -14.6811
         5        2.0000           -0.5395098             -14.6808
         6        2.0000           -0.4593893             -12.5006
         7        2.0000           -0.4593743             -12.5002 (HOMO)
         8                          0.0490849               1.3357 (LUMO)
         9                          0.1287952               3.5047
        10                          0.2047855               5.5725
        11                          0.2049228               5.5762
      -------------------------------------------------------------
                  HL-Gap            0.5084592 Eh           13.8359 eV

     #   Z          covCN         q      C6AA      Î±(0)
     1   6 C        3.557     0.046    20.708     6.642
     2   9 F        0.783    -0.288    12.180     4.122
     3   1 H        0.925     0.081     1.972     2.196
     4   1 H        0.925     0.081     1.973     2.196
     5   1 H        0.925     0.081     1.972     2.196

Wiberg/Mayer (AO) data.
largest (>0.10) Wiberg bond orders for each atom

     #   Z sym  total        # sym  WBO       # sym  WBO       # sym  WBO
 ---------------------------------------------------------------------------
     1   6 C    3.868 --     4 H    0.980     5 H    0.980     3 H    0.980
                             2 F    0.928
     2   9 F    0.967 --     1 C    0.928
     3   1 H    0.993 --     1 C    0.980
     4   1 H    0.993 --     1 C    0.980
     5   1 H    0.993 --     1 C    0.980
 ---------------------------------------------------------------------------

molecular dipole:
                 x           y           z       tot (Debye)
 q only:       -0.893       0.082      -0.049
   full:       -0.972       0.090      -0.053       2.485

           -------------------------------------------------
          | TOTAL ENERGY               -8.395161896226 Eh   |
          | GRADIENT NORM               0.000508615601 Eh/Î± |
          | HOMO-LUMO GAP              13.835878603556 eV   |
           -------------------------------------------------

 * finished run on 2024/05/31 at 17:47:22.946
