 Gaussian 16, Revision C.01,
 Gaussian 16:  ES64L-G16RevC.01  3-Jul-2019

 ----------------------------------------------------------------------
 # PBE1PBE Def2SVP EmpiricalDispersion=GD3BJ Opt=(loose, maxcycles=10)
 NoSymm scrf=(smd,solvent=Water)
 ----------------------------------------------------------------------

 ---------------------
 p0_CFH3_conf0_opt_g16
 ---------------------
 Symbolic Z-matrix:
 Charge =  0 Multiplicity = 1

 SCF Done:  E(RPBE1PBE) =  -139.482877013     A.U. after    9 cycles
 SCF Done:  E(RPBE1PBE) =  -139.483717640     A.U. after    8 cycles
 SCF Done:  E(RPBE1PBE) =  -139.483758256     A.U. after    7 cycles
 Optimization completed.
    -- Stationary point found.

                          Input orientation:
 ---------------------------------------------------------------------
 Center     Atomic      Atomic             Coordinates (Angstroms)
 Number     Number       Type             X           Y           Z
 ---------------------------------------------------------------------
      1          6           0       -0.055107    0.005091   -0.003026
      2          9           0        1.316745   -0.121376    0.071939
      3          1           0       -0.309989    0.920641   -0.559601
      4          1           0       -0.477010   -0.869428   -0.522759
      5          1           0       -0.474740    0.065173    1.013447
 ---------------------------------------------------------------------

 Alpha  occ. eigenvalues --  -24.74458 -10.28939  -1.19356  -0.69576  -0.49446
 Alpha  occ. eigenvalues --   -0.48395  -0.48394  -0.34486  -0.34486
 Alpha virt. eigenvalues --    0.10013   0.13989   0.15931   0.15932   0.47281
 Alpha virt. eigenvalues --    0.47282   0.49617   0.66175   0.67377   0.67378
 Alpha virt. eigenvalues --    0.68640   1.08299   1.08299   1.17400   1.38691

 Mulliken charges:
               1
     1  C    0.150712
     2  F   -0.329064
     3  H    0.059467
     4  H    0.059462
     5  H    0.059424
 Sum of Mulliken charges =   0.00000

 Dipole moment (field-independent basis, Debye):
    X=             -2.1249    Y=              0.1959    Z=             -0.1161  Tot=              2.1371
 Quadrupole moment (field-independent basis, Debye-Ang):
   XX=            -14.4396   YY=            -11.5864   ZZ=            -11.5708
   XY=              0.2653   XZ=             -0.1571   YZ=              0.0144

 Normal termination of Gaussian 16 at Fri May 31 17:47:43 2024.
