 Gaussian 16, Revision C.01,
 Gaussian 16:  ES64L-G16RevC.01  3-Jul-2019

 ----------------------------------------------------------------------
 # PBE1PBE Def2SVP EmpiricalDispersion=GD3BJ Opt=(loose, maxcycles=10)
 NoSymm scrf=(smd,solvent=Water)
 ----------------------------------------------------------------------

 ----------------------
 r0_CClH3_conf0_opt_g16
 ----------------------
 Symbolic Z-matrix:
 Charge =  0 Multiplicity = 1

 SCF Done:  E(RPBE1PBE) =  -499.730549827     A.U. after    9 cycles
 SCF Done:  E(RPBE1PBE) =  -499.730898021     A.U. after    8 cycles
 Optimization completed.
    -- Stationary point found.

                          Input orientation:
 ---------------------------------------------------------------------
 Center     Atomic      Atomic             Coordinates (Angstroms)
 Number     Number       Type             X           Y           Z
 ---------------------------------------------------------------------
      1          6           0       -0.149394   -0.007182    0.000962
      2         17           0        1.638727    0.078923   -0.009984
      3          1           0       -0.476056   -0.556836   -0.890014
      4          1           0       -0.466491   -0.529676    0.911511
      5          1           0       -0.546887    1.014772   -0.012374
 ---------------------------------------------------------------------

 Alpha  occ. eigenvalues -- -101.65876 -10.27378  -9.51066  -7.25208  -7.24207
 Alpha  occ. eigenvalues --   -7.24207  -0.86068  -0.67292  -0.44447  -0.44446
 Alpha  occ. eigenvalues --   -0.41532  -0.29916  -0.29916
 Alpha virt. eigenvalues --    0.05876   0.10664   0.14918   0.14919   0.42666
 Alpha virt. eigenvalues --    0.44069   0.44078   0.53740   0.66665   0.67764
 Alpha virt. eigenvalues --    0.67765   0.79199   0.79201   0.80469   0.81997

 Mulliken charges:
               1
     1  C   -0.090945
     2  Cl  -0.244994
     3  H    0.111997
     4  H    0.112019
     5  H    0.111923
 Sum of Mulliken charges =  -0.00000

 Dipole moment (field-independent basis, Debye):
    X=             -2.3780    Y=             -0.1145    Z=              0.0146  Tot=              2.3808
 Quadrupole moment (field-independent basis, Debye-Ang):
   XX=            -22.2138   YY=            -19.3597   ZZ=            -19.3513
   XY=             -0.1384   XZ=              0.0173   YZ=              0.0008

 Normal termination of Gaussian 16 at Fri May 31 17:47:22 2024.
