   * xtb version 6.3.3 (71d3805) compiled by 'conda@b85dec0bf610' on 2021-01-07
          program call               : /home/thijs/miniconda3/envs/ts-tools/bin/xtb r0_CClH3_conf0_opt_xtb.xyz --chrg 0 --uhf 0 --opt --gbsa Water
          number of atoms            :                     5
          number of electrons        :                    14
          charge                     :                     0

   ID    Z sym.   atoms
    1    6 C      1
    2   17 Cl     2
    3    1 H      3-5

        Solvent                        Water
        Solvent mass                       1.8000E+01 g/mol
          :  Hamiltonian                  GFN2-xTB          :
 * total energy  :    -8.2104162 Eh     change       -0.1405809E-10 Eh
 * total energy  :    -8.2124303 Eh     change       -0.2014087E-02 Eh
 * total energy  :    -8.2126243 Eh     change       -0.1939873E-03 Eh
 * total energy  :    -8.2126607 Eh     change       -0.3635279E-04 Eh
 * total energy  :    -8.2126726 Eh     change       -0.1190436E-04 Eh
 * total energy  :    -8.2126727 Eh     change       -0.1160123E-06 Eh
   *** GEOMETRY OPTIMIZATION CONVERGED AFTER 6 ITERATIONS ***

 final structure:
================
5
 xtb: 6.3.3 (71d3805)
C        -0.15839716423891   -0.00763794061606    0.00099990166256
Cl        1.62820040832824    0.07850605476303   -0.00988762567399
H        -0.46978918050685   -0.55266042327627   -0.88334739969589
H        -0.46022281277732   -0.52569732353659    0.90464006238666
H        -0.53989125080516    1.00748963266589   -0.01230493867934

          :  Hamiltonian                  GFN2-xTB          :
         :: total energy              -8.212672698291 Eh    ::
         :: gradient norm              0.000096689992 Eh/a0 ::
         :: HOMO-LUMO gap              7.109936768417 eV    ::
         :: SCC energy                -8.269073705149 Eh    ::
         :: -> dispersion             -0.001261315038 Eh    ::
         :: -> Gsolv                  -0.003108925104 Eh    ::
         :: repulsion energy           0.056400971139 Eh    ::

    * Orbital Energies and Occupations

         #    Occupation            Energy/Eh            Energy/eV
      -------------------------------------------------------------
         1        2.0000           -1.0560054             -28.7354
         2        2.0000           -0.6091453             -16.5757
         3        2.0000           -0.5082776             -13.8309
         4        2.0000           -0.5082707             -13.8308
         5        2.0000           -0.4995684             -13.5939
         6        2.0000           -0.4158737             -11.3165
         7        2.0000           -0.4158726             -11.3165 (HOMO)
         8                         -0.1545872              -4.2065 (LUMO)
         9                          0.0199372               0.5425
        10                          0.0199413               0.5426
        11                          0.0251540               0.6845
        12                          0.0251541               0.6845
        13                          0.1141604               3.1065
        14                          0.1604893               4.3671
        15                          0.2193214               5.9680
        16                          0.2194084               5.9704
      -------------------------------------------------------------
                  HL-Gap            0.2612854 Eh            7.1099 eV

     #   Z          covCN         q      C6AA      Î±(0)
     1   6 C        3.662    -0.036    21.493     6.651
     2  17 Cl       0.887    -0.249   107.036    15.828
     3   1 H        0.925     0.095     1.831     2.116
     4   1 H        0.925     0.095     1.831     2.116
     5   1 H        0.925     0.095     1.831     2.116

Wiberg/Mayer (AO) data.
largest (>0.10) Wiberg bond orders for each atom

     #   Z sym  total        # sym  WBO       # sym  WBO       # sym  WBO
 ---------------------------------------------------------------------------
     1   6 C    3.905 --     3 H    0.985     4 H    0.985     5 H    0.985
                             2 Cl   0.949
     2  17 Cl   0.966 --     1 C    0.949
     3   1 H    0.991 --     1 C    0.985
     4   1 H    0.991 --     1 C    0.985
     5   1 H    0.991 --     1 C    0.985
 ---------------------------------------------------------------------------

molecular dipole:
                 x           y           z       tot (Debye)
 q only:       -1.020      -0.049       0.006
   full:       -0.869      -0.042       0.005       2.211

           -------------------------------------------------
          | TOTAL ENERGY               -8.212672698291 Eh   |
          | GRADIENT NORM               0.000096689992 Eh/Î± |
          | HOMO-LUMO GAP               7.109936768417 eV   |
           -------------------------------------------------

 * finished run on 2024/05/31 at 17:47:03.963
