 Gaussian 16, Revision C.01,
 Gaussian 16:  ES64L-G16RevC.01  3-Jul-2019

 ----------------------------------------------------------------------
 # PBE1PBE Def2SVP Freq EmpiricalDispersion=GD3BJ scrf=(smd,solvent=Wat
 er)
 ----------------------------------------------------------------------

 -----------------------------
 dOr2Us_ll_ad_0-5_0-1_hess_g16
 -----------------------------
 Symbolic Z-matrix:
 Charge = -1 Multiplicity = 1

                         Standard orientation:
 ---------------------------------------------------------------------
 Center     Atomic      Atomic             Coordinates (Angstroms)
 Number     Number       Type             X           Y           Z
 ---------------------------------------------------------------------
      1          6           0       -0.536909   -0.003562    0.003214
      2         17           0        1.657962    0.000900   -0.000831
      3          1           0       -0.617867   -0.278785    1.033707
      4          1           0       -0.618994    1.026490   -0.273436
      5          1           0       -0.618837   -0.758374   -0.750251
      6          9           0       -2.567579    0.001861   -0.001685
 ---------------------------------------------------------------------

 SCF Done:  E(RPBE1PBE) =  -599.477528910     A.U. after   11 cycles

 The electronic state is 1-A.
 Alpha  occ. eigenvalues -- -101.57371 -24.56628 -10.26814  -9.42320  -7.16206
 Alpha  occ. eigenvalues --   -7.15642  -7.15642  -0.95928  -0.74594  -0.65536
 Alpha  occ. eigenvalues --   -0.42860  -0.42854  -0.32061  -0.24846  -0.24845
 Alpha  occ. eigenvalues --   -0.23814  -0.23809  -0.22463
 Alpha virt. eigenvalues --    0.03926   0.10963   0.17170   0.17178   0.47112
 Alpha virt. eigenvalues --    0.47122   0.55268   0.63204   0.71201   0.71206
 Alpha virt. eigenvalues --    0.72739   0.73705   0.87924   0.87930   0.89211

 Mulliken charges:
               1
     1  C    0.024511
     2  Cl  -0.573361
     3  H    0.084271
     4  H    0.084099
     5  H    0.084146
     6  F   -0.703666
 Sum of Mulliken charges =  -1.00000

 Dipole moment (field-independent basis, Debye):
    X=              3.3065    Y=             -0.0141    Z=              0.0136  Tot=              3.3066
 Quadrupole moment (field-independent basis, Debye-Ang):
   XX=            -56.4145   YY=            -25.6569   ZZ=            -25.6553
   XY=              0.0165   XZ=             -0.0151   YZ=              0.0002

  Exact polarizability:      69.699       0.014      21.174      -0.008      -0.004      21.162
 Approx polarizability:      87.031       0.016      22.039      -0.013      -0.000      22.027

 ******    1 imaginary frequencies (negative Signs) ******

                      1                      2                      3
                      A                      A                      A
 Frequencies --   -548.7902               230.1233               239.8710
 Red. masses --     11.3953                 4.3724                 4.3774
 Frc consts  --      2.0220                 0.1364                 0.1484
 IR Inten    --   1157.8602                27.9364                27.6744

                      4                      5                      6
                      A                      A                      A
 Frequencies --    261.7268               825.5459               830.1030
 Red. masses --     22.1032                 1.0271                 1.0265
 Frc consts  --      0.8921                 0.4124                 0.4168
 IR Inten    --      1.3605                 0.7618                 0.7313

                      7                      8                      9
                      A                      A                      A
 Frequencies --    969.5407              1298.1064              1299.6014
 Red. masses --      1.0656                 1.1007                 1.1019
 Frc consts  --      0.5902                 1.0928                 1.0965
 IR Inten    --      3.6581                10.6102                10.7381

                     10                     11                     12
                      A                      A                      A
 Frequencies --   3307.2739              3540.1072              3541.0752
 Red. masses --      1.0090                 1.1256                 1.1255
 Frc consts  --      6.5026                 8.3110                 8.3148
 IR Inten    --      0.2847                 1.0620                 0.9933

 - Thermochemistry -
 -------------------
 Temperature   298.150 Kelvin.  Pressure   1.00000 Atm.
 Atom     1 has atomic number  6 and mass  12.00000

 Molecular mass:    68.99073 amu.
 Principal axes and moments of inertia in atomic units:
                           1         2         3
     Eigenvalues --    12.28402 813.11182 813.11341
           X            1.00000   0.00005  -0.00002
           Y           -0.00004   0.96680   0.25552
           Z            0.00004  -0.25552   0.96680
 This molecule is an asymmetric top.
 Rotational symmetry number  1.
 Rotational temperatures (Kelvin)      7.05095     0.10652     0.10652
 Rotational constants (GHZ):         146.91786     2.21955     2.21954
    1 imaginary frequencies ignored.
 Zero-point vibrational energy      97753.3 (Joules/Mol)
                                   23.36360 (Kcal/Mol)
 Warning -- explicit consideration of   3 degrees of freedom as
           vibrations may cause significant error
 Vibrational temperatures:    331.10   345.12   376.57  1187.78  1194.33
          (Kelvin)           1394.95  1867.69  1869.84  4758.43  5093.42
                             5094.82

 Zero-point correction=                           0.037232 (Hartree/Particle)
 Thermal correction to Energy=                    0.041756
 Thermal correction to Enthalpy=                  0.042701
 Thermal correction to Gibbs Free Energy=         0.010350
 Sum of electronic and zero-point Energies=           -599.440297
 Sum of electronic and thermal Energies=              -599.435773
 Sum of electronic and thermal Enthalpies=            -599.434828
 Sum of electronic and thermal Free Energies=         -599.467179

                     E (Thermal)             CV                S
                      KCal/Mol        Cal/Mol-Kelvin    Cal/Mol-Kelvin
 Total                   26.202             13.200             68.087
 Electronic               0.000              0.000              0.000
 Translational            0.889              2.981             38.612
 Rotational               0.889              2.981             23.611
 Vibrational             24.425              7.238              5.864
 Vibration     1          0.652              1.795              1.878
 Vibration     2          0.657              1.779              1.804
 Vibration     3          0.669              1.743              1.650

 Normal termination of Gaussian 16 at Fri May 31 17:49:22 2024.
