 Gaussian 16, Revision C.01,
 Gaussian 16:  ES64L-G16RevC.01  3-Jul-2019

 ----------------------------------------------------------------------
 # PBE1PBE Def2SVP Freq EmpiricalDispersion=GD3BJ Opt=(TS, CalcFC, NoEi
 genTest, MaxCycles=100, MaxStep=10, NoTrustUpdate, RecalcFC=30) Geom=M
 odRedun NoSymm scrf=(smd,solvent=Water)
 ----------------------------------------------------------------------

 --------------------------------------
 TS_dOr2Us_ll_ad_0-5_0-1_optts_conf_g16
 --------------------------------------
 Symbolic Z-matrix:
 Charge = -1 Multiplicity = 1

 SCF Done:  E(RPBE1PBE) =  -599.478550516     A.U. after   11 cycles
 SCF Done:  E(RPBE1PBE) =  -599.478554325     A.U. after    8 cycles
 Optimization completed.
    -- Stationary point found.

 1\1\GINC-DALE\FTS\RPBE1PBE\def2SVP\C1H3Cl1F1(1-)\THIJS\31-May-2024\0\\
 # PBE1PBE Def2SVP Freq EmpiricalDispersion=GD3BJ Opt=(TS, CalcFC, NoEi
 genTest, MaxCycles=100, MaxStep=10, NoTrustUpdate, RecalcFC=30) Geom=M
 odRedun NoSymm scrf=(smd,solvent=Water)\\TS_dOr2Us_ll_ad_0-5_0-1_optts
 _conf_g16\\-1,1\C,5.3916369632,0.6651941089,-1.0514379206\Cl,6.9998039
 557,-0.3844319476,-1.9777421271\H,5.0577330161,1.1617676882,-1.9544531
 4\H,4.8685760844,-0.2214043013,-0.7137775894\H,6.0130545002,1.20916331
 85,-0.3504808155\F,3.8857954805,1.6477711333,-0.1829984074\\Version=ES

 Normal termination of Gaussian 16 at Fri May 31 17:51:36 2024.

 ---------------------------------------------------------------------
 #N Geom=AllCheck Guess=TCheck SCRF=Check GenChk RPBE1PBE/def2SVP Freq
 ---------------------------------------------------------------------

 Structure from the checkpoint file:  "/home/thijs/scratch/Gau-2620995.chk"
 --------------------------------------
 TS_dOr2Us_ll_ad_0-5_0-1_optts_conf_g16
 --------------------------------------
 Charge = -1 Multiplicity = 1

                          Input orientation:
 ---------------------------------------------------------------------
 Center     Atomic      Atomic             Coordinates (Angstroms)
 Number     Number       Type             X           Y           Z
 ---------------------------------------------------------------------
      1          6           0        5.391637    0.665194   -1.051438
      2         17           0        6.999804   -0.384432   -1.977742
      3          1           0        5.057733    1.161768   -1.954453
      4          1           0        4.868576   -0.221404   -0.713778
      5          1           0        6.013055    1.209163   -0.350481
      6          9           0        3.885795    1.647771   -0.182998
 ---------------------------------------------------------------------

 SCF Done:  E(RPBE1PBE) =  -599.478554325     A.U. after    1 cycles

 Alpha  occ. eigenvalues -- -101.57596 -24.56140 -10.26587  -9.42596  -7.16491
 Alpha  occ. eigenvalues --   -7.15907  -7.15907  -0.95746  -0.75213  -0.64740
 Alpha  occ. eigenvalues --   -0.42332  -0.42327  -0.32671  -0.25002  -0.25002
 Alpha  occ. eigenvalues --   -0.23483  -0.23481  -0.22067
 Alpha virt. eigenvalues --    0.05471   0.10946   0.16960   0.16964   0.47408
 Alpha virt. eigenvalues --    0.47410   0.55451   0.62427   0.70608   0.70610
 Alpha virt. eigenvalues --    0.73511   0.74722   0.87453   0.87456   0.88994

 Mulliken charges:
               1
     1  C    0.016067
     2  Cl  -0.556300
     3  H    0.083724
     4  H    0.083924
     5  H    0.083641
     6  F   -0.711056
 Sum of Mulliken charges =  -1.00000

 Dipole moment (field-independent basis, Debye):
    X=            -25.1463    Y=             -3.6851    Z=              4.6139  Tot=             25.8303
 Quadrupole moment (field-independent basis, Debye-Ang):
   XX=           -172.7001   YY=            -35.0602   ZZ=            -35.2241
   XY=             -9.2649   XZ=             33.0096   YZ=             -2.2399

  Exact polarizability:      46.577     -16.256      32.280     -14.349       9.372      29.936
 Approx polarizability:      55.589     -21.573      36.604     -19.052      12.432      33.505

 ******    1 imaginary frequencies (negative Signs) ******

                      1                      2                      3
                      A                      A                      A
 Frequencies --   -516.1901               231.2729               237.0063
 Red. masses --     11.9887                 4.3523                 4.3373
 Frc consts  --      1.8821                 0.1372                 0.1435
 IR Inten    --   1165.1708                26.9128                27.0139

                      4                      5                      6
                      A                      A                      A
 Frequencies --    289.4046               922.7597               932.7329
 Red. masses --     22.2333                 1.0297                 1.0298
 Frc consts  --      1.0971                 0.5166                 0.5279
 IR Inten    --      1.6251                 1.0764                 1.1506

                      7                      8                      9
                      A                      A                      A
 Frequencies --   1045.9085              1323.8296              1324.5980
 Red. masses --      1.0600                 1.1000                 1.1003
 Frc consts  --      0.6832                 1.1358                 1.1374
 IR Inten    --      5.5497                 9.6036                 9.7306

                     10                     11                     12
                      A                      A                      A
 Frequencies --   3177.3241              3397.1776              3398.4498
 Red. masses --      1.0097                 1.1261                 1.1260
 Frc consts  --      6.0056                 7.6572                 7.6622
 IR Inten    --      1.3046                 0.0100                 0.0137

 - Thermochemistry -
 -------------------
 Temperature   298.150 Kelvin.  Pressure   1.00000 Atm.
 Atom     1 has atomic number  6 and mass  12.00000

 Molecular mass:    68.99073 amu.
 Principal axes and moments of inertia in atomic units:
                           1         2         3
     Eigenvalues --    12.55356 776.35125 776.35286
           X            0.75420   0.44796   0.48012
           Y           -0.49219   0.86965  -0.03823
           Z           -0.43466  -0.20747   0.87637
 This molecule is an asymmetric top.
 Rotational symmetry number  1.
 Rotational temperatures (Kelvin)      6.89955     0.11157     0.11157
 Rotational constants (GHZ):         143.76331     2.32465     2.32464
    1 imaginary frequencies ignored.
 Zero-point vibrational energy      97378.8 (Joules/Mol)
                                   23.27409 (Kcal/Mol)
 Warning -- explicit consideration of   3 degrees of freedom as
           vibrations may cause significant error
 Vibrational temperatures:    332.75   341.00   416.39  1327.65  1341.99
          (Kelvin)           1504.83  1904.70  1905.80  4571.46  4887.78
                             4889.61

 Zero-point correction=                           0.037090 (Hartree/Particle)
 Thermal correction to Energy=                    0.041522
 Thermal correction to Enthalpy=                  0.042467
 Thermal correction to Gibbs Free Energy=         0.010300
 Sum of electronic and zero-point Energies=           -599.441465
 Sum of electronic and thermal Energies=              -599.437032
 Sum of electronic and thermal Enthalpies=            -599.436088
 Sum of electronic and thermal Free Energies=         -599.468255

                     E (Thermal)             CV                S
                      KCal/Mol        Cal/Mol-Kelvin    Cal/Mol-Kelvin
 Total                   26.056             12.762             67.701
 Electronic               0.000              0.000              0.000
 Translational            0.889              2.981             38.612
 Rotational               0.889              2.981             23.541
 Vibrational             24.278              6.800              5.549
 Vibration     1          0.653              1.793              1.869
 Vibration     2          0.656              1.784              1.825
 Vibration     3          0.686              1.693              1.477

 Optimization completed.
    -- Stationary point found.
 Normal termination of Gaussian 16 at Fri May 31 17:51:48 2024.
