 Gaussian 16, Revision C.01,
 Gaussian 16:  ES64L-G16RevC.01  3-Jul-2019

 ----------------------------------------------------------------------
 # PBE1PBE Def2SVP Freq EmpiricalDispersion=GD3BJ Opt=(TS, CalcFC, NoEi
 genTest, MaxCycles=100, MaxStep=10, NoTrustUpdate, RecalcFC=30) Geom=M
 odRedun NoSymm scrf=(smd,solvent=Water)
 ----------------------------------------------------------------------

 ---------------------------------
 TS_dOr2Us_ll_ad_0-5_0-1_optts_g16
 ---------------------------------
 Symbolic Z-matrix:
 Charge = -1 Multiplicity = 1

 SCF Done:  E(RPBE1PBE) =  -599.477549295     A.U. after   11 cycles
 SCF Done:  E(RPBE1PBE) =  -599.478449822     A.U. after    9 cycles
 SCF Done:  E(RPBE1PBE) =  -599.478591923     A.U. after    9 cycles
 SCF Done:  E(RPBE1PBE) =  -599.478592883     A.U. after    7 cycles
 Optimization completed.
    -- Stationary point found.

 1\1\GINC-DALE\FTS\RPBE1PBE\def2SVP\C1H3Cl1F1(1-)\THIJS\31-May-2024\0\\
 # PBE1PBE Def2SVP Freq EmpiricalDispersion=GD3BJ Opt=(TS, CalcFC, NoEi
 genTest, MaxCycles=100, MaxStep=10, NoTrustUpdate, RecalcFC=30) Geom=M
 odRedun NoSymm scrf=(smd,solvent=Water)\\TS_dOr2Us_ll_ad_0-5_0-1_optts
 _g16\\-1,1\C,4.6221070715,-0.027023035,0.0073678224\Cl,6.7517190742,0.
 0751002342,-0.012449596\H,4.5362095214,-0.5849590907,-0.9171843867\H,4
 .5517592673,-0.5564773862,0.9498655797\H,4.4660736493,1.0448674666,-0.
 0075699119\F,2.6282114263,-0.1199181788,0.0233404925\\Version=ES64L-G1

 Normal termination of Gaussian 16 at Fri May 31 17:50:02 2024.

 ---------------------------------------------------------------------
 #N Geom=AllCheck Guess=TCheck SCRF=Check GenChk RPBE1PBE/def2SVP Freq
 ---------------------------------------------------------------------

 Structure from the checkpoint file:  "/home/thijs/scratch/Gau-2620438.chk"
 ---------------------------------
 TS_dOr2Us_ll_ad_0-5_0-1_optts_g16
 ---------------------------------
 Charge = -1 Multiplicity = 1

                          Input orientation:
 ---------------------------------------------------------------------
 Center     Atomic      Atomic             Coordinates (Angstroms)
 Number     Number       Type             X           Y           Z
 ---------------------------------------------------------------------
      1          6           0        4.622107   -0.027023    0.007368
      2         17           0        6.751719    0.075100   -0.012450
      3          1           0        4.536210   -0.584959   -0.917184
      4          1           0        4.551759   -0.556477    0.949866
      5          1           0        4.466074    1.044867   -0.007570
      6          9           0        2.628211   -0.119918    0.023340
 ---------------------------------------------------------------------

 SCF Done:  E(RPBE1PBE) =  -599.478592883     A.U. after    1 cycles

 Alpha  occ. eigenvalues -- -101.57594 -24.56155 -10.26588  -9.42594  -7.16488
 Alpha  occ. eigenvalues --   -7.15905  -7.15905  -0.95764  -0.75211  -0.64742
 Alpha  occ. eigenvalues --   -0.42337  -0.42328  -0.32679  -0.25006  -0.25004
 Alpha  occ. eigenvalues --   -0.23492  -0.23491  -0.22073
 Alpha virt. eigenvalues --    0.05473   0.10946   0.16960   0.16962   0.47400
 Alpha virt. eigenvalues --    0.47408   0.55452   0.62429   0.70605   0.70610
 Alpha virt. eigenvalues --    0.73502   0.74724   0.87456   0.87457   0.88996

 Mulliken charges:
               1
     1  C    0.015812
     2  Cl  -0.556353
     3  H    0.083852
     4  H    0.083910
     5  H    0.083705
     6  F   -0.710926
 Sum of Mulliken charges =  -1.00000

 Dipole moment (field-independent basis, Debye):
    X=            -21.2093    Y=              0.1667    Z=             -0.0355  Tot=             21.2099
 Quadrupole moment (field-independent basis, Debye-Ang):
   XX=           -146.2819   YY=            -25.7542   ZZ=            -25.6908
   XY=             -0.5393   XZ=              0.0778   YZ=              0.0122

  Exact polarizability:      65.343       2.066      21.769      -0.385      -0.018      21.667
 Approx polarizability:      80.487       2.747      22.660      -0.510      -0.023      22.528

 ******    1 imaginary frequencies (negative Signs) ******

                      1                      2                      3
                      A                      A                      A
 Frequencies --   -511.9844               245.4786               247.9425
 Red. masses --     11.9443                 4.3345                 4.3293
 Frc consts  --      1.8447                 0.1539                 0.1568
 IR Inten    --   1164.7234                27.0205                26.8647

                      4                      5                      6
                      A                      A                      A
 Frequencies --    292.4031               930.5851               938.8181
 Red. masses --     22.0874                 1.0298                 1.0305
 Frc consts  --      1.1127                 0.5254                 0.5351
 IR Inten    --      2.2486                 1.0807                 1.2014

                      7                      8                      9
                      A                      A                      A
 Frequencies --   1052.5203              1325.0698              1327.1637
 Red. masses --      1.0607                 1.1005                 1.1004
 Frc consts  --      0.6923                 1.1385                 1.1420
 IR Inten    --      5.3656                 9.4198                 9.6297

                     10                     11                     12
                      A                      A                      A
 Frequencies --   3177.4305              3397.6815              3398.0308
 Red. masses --      1.0097                 1.1260                 1.1261
 Frc consts  --      6.0059                 7.6589                 7.6611
 IR Inten    --      1.4188                 0.0053                 0.0077

 - Thermochemistry -
 -------------------
 Temperature   298.150 Kelvin.  Pressure   1.00000 Atm.
 Atom     1 has atomic number  6 and mass  12.00000

 Molecular mass:    68.99073 amu.
 Principal axes and moments of inertia in atomic units:
                           1         2         3
     Eigenvalues --    12.55339 776.13021 776.13401
           X            0.99884  -0.04677   0.01119
           Y            0.04729   0.99751  -0.05228
           Z           -0.00872   0.05275   0.99857
 This molecule is an asymmetric top.
 Rotational symmetry number  1.
 Rotational temperatures (Kelvin)      6.89964     0.11160     0.11160
 Rotational constants (GHZ):         143.76522     2.32531     2.32530
    1 imaginary frequencies ignored.
 Zero-point vibrational energy      97693.8 (Joules/Mol)
                                   23.34937 (Kcal/Mol)
 Warning -- explicit consideration of   3 degrees of freedom as
           vibrations may cause significant error
 Vibrational temperatures:    353.19   356.73   420.70  1338.90  1350.75
          (Kelvin)           1514.34  1906.48  1909.49  4571.61  4888.51
                             4889.01

 Zero-point correction=                           0.037210 (Hartree/Particle)
 Thermal correction to Energy=                    0.041599
 Thermal correction to Enthalpy=                  0.042543
 Thermal correction to Gibbs Free Energy=         0.010478
 Sum of electronic and zero-point Energies=           -599.441383
 Sum of electronic and thermal Energies=              -599.436994
 Sum of electronic and thermal Enthalpies=            -599.436050
 Sum of electronic and thermal Free Energies=         -599.468115

                     E (Thermal)             CV                S
                      KCal/Mol        Cal/Mol-Kelvin    Cal/Mol-Kelvin
 Total                   26.104             12.690             67.488
 Electronic               0.000              0.000              0.000
 Translational            0.889              2.981             38.612
 Rotational               0.889              2.981             23.540
 Vibrational             24.326              6.728              5.336
 Vibration     1          0.660              1.770              1.763
 Vibration     2          0.662              1.766              1.745
 Vibration     3          0.688              1.688              1.460

 Optimization completed.
    -- Stationary point found.
 Normal termination of Gaussian 16 at Fri May 31 17:50:14 2024.
