 Gaussian 16, Revision C.01,
 Gaussian 16:  ES64L-G16RevC.01  3-Jul-2019

 ----------------------------------------------------------------------
 # PBE1PBE Def2SVP EmpiricalDispersion=GD3BJ Geom=ModRedun Opt=(loose,
 maxcycles=10) NoSymm scrf=(smd,solvent=Water)
 ----------------------------------------------------------------------

 -------------------------------------
 TS_dOr2Us_ll_ad_0-5_0-1_conf0_opt_g16
 -------------------------------------
 Symbolic Z-matrix:
 Charge = -1 Multiplicity = 1

 SCF Done:  E(RPBE1PBE) =  -599.478199010     A.U. after   11 cycles
 SCF Done:  E(RPBE1PBE) =  -599.478550515     A.U. after    9 cycles
 Optimization completed.
    -- Stationary point found.

                          Input orientation:
 ---------------------------------------------------------------------
 Center     Atomic      Atomic             Coordinates (Angstroms)
 Number     Number       Type             X           Y           Z
 ---------------------------------------------------------------------
      1          6           0        5.390229    0.665934   -1.050538
      2         17           0        6.998436   -0.383388   -1.977179
      3          1           0        5.058437    1.161409   -1.955939
      4          1           0        4.869647   -0.223736   -0.714229
      5          1           0        6.014711    1.208900   -0.350170
      6          9           0        3.885140    1.648941   -0.182835
 ---------------------------------------------------------------------

 Alpha  occ. eigenvalues -- -101.57566 -24.56162 -10.26620  -9.42567  -7.16461
 Alpha  occ. eigenvalues --   -7.15879  -7.15879  -0.95761  -0.75203  -0.64711
 Alpha  occ. eigenvalues --   -0.42326  -0.42322  -0.32658  -0.24990  -0.24989
 Alpha  occ. eigenvalues --   -0.23490  -0.23489  -0.22068
 Alpha virt. eigenvalues --    0.05491   0.10921   0.16939   0.16941   0.47435
 Alpha virt. eigenvalues --    0.47442   0.55434   0.62370   0.70560   0.70562
 Alpha virt. eigenvalues --    0.73501   0.74668   0.87459   0.87461   0.89004

 Mulliken charges:
               1
     1  C    0.015121
     2  Cl  -0.557363
     3  H    0.084207
     4  H    0.084451
     5  H    0.084142
     6  F   -0.710557
 Sum of Mulliken charges =  -1.00000

 Dipole moment (field-independent basis, Debye):
    X=            -25.1497    Y=             -3.6863    Z=              4.6175  Tot=             25.8344
 Quadrupole moment (field-independent basis, Debye-Ang):
   XX=           -172.7451   YY=            -35.0669   ZZ=            -35.2327
   XY=             -9.2648   XZ=             33.0374   YZ=             -2.2412

 Normal termination of Gaussian 16 at Fri May 31 17:50:45 2024.
