   * xtb version 6.3.3 (71d3805) compiled by 'conda@b85dec0bf610' on 2021-01-07
          program call               : /home/thijs/miniconda3/envs/ts-tools/bin/xtb TS_dOr2Us_ll_ad_0-5_0-1_conf299_opt_xtb.xyz --chrg -1 --uhf 0 --opt --gbsa Water --input xcontrol_TS_dOr2Us_ll_ad_0-5_0-1_conf299_opt_xtb
          number of atoms            :                     6
          number of electrons        :                    22
          charge                     :                    -1

   ID    Z sym.   atoms
    1    6 C      1
    2   17 Cl     2
    3    1 H      3-5
    4    9 F      6
constraining bond 1 2 to    2.1322000 Å, actual value:    2.1321699 Å
constraining bond 1 6 to    1.9961000 Å, actual value:    1.9961361 Å

        Solvent                        Water
        Solvent mass                       1.8000E+01 g/mol
          :  Hamiltonian                  GFN2-xTB          :
 * total energy  :   -13.1661873 Eh     change       -0.4824585E-11 Eh
 * total energy  :   -13.1879634 Eh     change       -0.2177611E-01 Eh
 * total energy  :   -13.1900645 Eh     change       -0.2101117E-02 Eh
 * total energy  :   -13.1911954 Eh     change       -0.1130911E-02 Eh
 * total energy  :   -13.1914318 Eh     change       -0.2364148E-03 Eh
 * total energy  :   -13.1922774 Eh     change       -0.8455980E-03 Eh
 * total energy  :   -13.1937232 Eh     change       -0.1445765E-02 Eh
 * total energy  :   -13.1942573 Eh     change       -0.5341117E-03 Eh
 * total energy  :   -13.1958468 Eh     change       -0.1589503E-02 Eh
 * total energy  :   -13.1996901 Eh     change       -0.3843299E-02 Eh
 * total energy  :   -13.2025792 Eh     change       -0.3087685E-03 Eh
 * total energy  :   -13.2028073 Eh     change       -0.2281626E-03 Eh
 * total energy  :   -13.2029641 Eh     change       -0.1567293E-03 Eh
 * total energy  :   -13.2030035 Eh     change       -0.3943619E-04 Eh
 * total energy  :   -13.2030378 Eh     change       -0.3430814E-04 Eh
 * total energy  :   -13.2030599 Eh     change       -0.2208719E-04 Eh
 * total energy  :   -13.2030646 Eh     change       -0.4753223E-05 Eh
 * total energy  :   -13.2030648 Eh     change       -0.1318175E-06 Eh
 * total energy  :   -13.2030652 Eh     change       -0.4180217E-06 Eh
   *** GEOMETRY OPTIMIZATION CONVERGED AFTER 23 ITERATIONS ***

 final structure:
================
6
 xtb: 6.3.3 (71d3805)
C         5.32116705642524   -0.49095741217193   -0.40317986748976
Cl        4.79129032919588   -1.77705952751286   -2.01375245886348
H         6.26316350607288   -1.04613691080272   -0.33509152153062
H         4.72784613067694   -0.64502070996951    0.47969953897944
H         5.50181444037637    0.52330826671993   -0.70970633428736
F         3.50935853725268    0.20368629373691   -0.89752935680828

          :  Hamiltonian                  GFN2-xTB          :
         :: total energy             -13.203065189666 Eh    ::
         :: gradient norm              0.000802885227 Eh/a0 ::
         :: HOMO-LUMO gap              2.433953574307 eV    ::
         :: SCC energy               -13.257774773443 Eh    ::
         :: -> dispersion             -0.002323557949 Eh    ::
         :: -> Gsolv                  -0.120396095421 Eh    ::
         :: repulsion energy           0.054306326081 Eh    ::

    * Orbital Energies and Occupations

         #    Occupation            Energy/Eh            Energy/eV
      -------------------------------------------------------------
         1        2.0000           -1.0261758             -27.9237
         2        2.0000           -0.6312947             -17.1784
         3        2.0000           -0.5825076             -15.8508
         4        2.0000           -0.4880643             -13.2809
         5        2.0000           -0.4777941             -13.0014
         6        2.0000           -0.4419235             -12.0254
         7        2.0000           -0.3962946             -10.7837
         8        2.0000           -0.3909954             -10.6395
         9        2.0000           -0.3521908              -9.5836
        10        2.0000           -0.3492798              -9.5044
        11        2.0000           -0.3415046              -9.2928 (HOMO)
        12                         -0.2520584              -6.8589 (LUMO)
        13                          0.0622124               1.6929
        14                          0.0649364               1.7670
        15                          0.0695162               1.8916
        16                          0.0718668               1.9556
        17                          0.0839121               2.2834
        18                          0.1538130               4.1855
        19                          0.2101337               5.7180
        20                          0.2671796               7.2703
      -------------------------------------------------------------
                  HL-Gap            0.0894461 Eh            2.4340 eV

     #   Z          covCN         q      C6AA      α(0)
     1   6 C        3.654     0.036    20.269     6.464
     2  17 Cl       0.738    -0.393   111.672    16.164
     3   1 H        0.924     0.038     2.472     2.459
     4   1 H        0.926     0.073     2.057     2.243
     5   1 H        0.926     0.073     2.058     2.243
     6   9 F        0.169    -0.826    20.770     5.312

Wiberg/Mayer (AO) data.
largest (>0.10) Wiberg bond orders for each atom

     #   Z sym  total        # sym  WBO       # sym  WBO       # sym  WBO
 ---------------------------------------------------------------------------
     1   6 C    3.925 --     5 H    0.991     4 H    0.991     3 H    0.980
                             2 Cl   0.756     6 F    0.207
     2  17 Cl   0.855 --     1 C    0.756
     3   1 H    0.999 --     1 C    0.980
     4   1 H    0.995 --     1 C    0.991
     5   1 H    0.995 --     1 C    0.991
     6   9 F    0.319 --     1 C    0.207
 ---------------------------------------------------------------------------

molecular dipole:
                 x           y           z       tot (Debye)
 q only:       -6.822       0.876       2.813
   full:       -7.174       1.169       2.874      19.866

           -------------------------------------------------
          | TOTAL ENERGY              -13.203065189666 Eh   |
          | GRADIENT NORM               0.000802885227 Eh/α |
          | HOMO-LUMO GAP               2.433953574307 eV   |
           -------------------------------------------------

 * finished run on 2024/05/31 at 17:50:20.017
