 Gaussian 16, Revision C.01,
 Gaussian 16:  ES64L-G16RevC.01  3-Jul-2019

 ----------------------------------------------------------------------
 # PBE1PBE Def2SVP EmpiricalDispersion=GD3BJ Geom=ModRedun Opt=(loose,
 maxcycles=10) NoSymm scrf=(smd,solvent=Water)
 ----------------------------------------------------------------------

 ---------------------------------------
 TS_dOr2Us_ll_ad_0-5_0-1_conf299_opt_g16
 ---------------------------------------
 Symbolic Z-matrix:
 Charge = -1 Multiplicity = 1

 SCF Done:  E(RPBE1PBE) =  -599.426501937     A.U. after   12 cycles
 SCF Done:  E(RPBE1PBE) =  -599.428827491     A.U. after   11 cycles
 SCF Done:  E(RPBE1PBE) =  -599.428980285     A.U. after   10 cycles
 SCF Done:  E(RPBE1PBE) =  -599.429033364     A.U. after    9 cycles
 SCF Done:  E(RPBE1PBE) =  -599.429047685     A.U. after    9 cycles
 Optimization completed.
    -- Stationary point found.

                          Input orientation:
 ---------------------------------------------------------------------
 Center     Atomic      Atomic             Coordinates (Angstroms)
 Number     Number       Type             X           Y           Z
 ---------------------------------------------------------------------
      1          6           0        5.313931   -0.509150   -0.425670
      2         17           0        4.850086   -1.832948   -2.031433
      3          1           0        6.277320   -1.046684   -0.325663
      4          1           0        4.689116   -0.643865    0.452577
      5          1           0        5.462601    0.521512   -0.735242
      6          9           0        3.521586    0.278955   -0.814129
 ---------------------------------------------------------------------

 Alpha  occ. eigenvalues -- -101.59777 -24.53072 -10.26593  -9.44687  -7.18718
 Alpha  occ. eigenvalues --   -7.17950  -7.17909  -0.93629  -0.75672  -0.64997
 Alpha  occ. eigenvalues --   -0.41143  -0.40733  -0.32930  -0.26111  -0.26051
 Alpha  occ. eigenvalues --   -0.21504  -0.20562  -0.19124
 Alpha virt. eigenvalues --    0.00354   0.12126   0.17447   0.17763   0.46237
 Alpha virt. eigenvalues --    0.52666   0.55648   0.58262   0.67934   0.69786
 Alpha virt. eigenvalues --    0.70618   0.75819   0.85361   0.86564   0.87166

 Mulliken charges:
               1
     1  C    0.023471
     2  Cl  -0.422038
     3  H    0.022864
     4  H    0.055085
     5  H    0.055077
     6  F   -0.734459
 Sum of Mulliken charges =  -1.00000

 Dipole moment (field-independent basis, Debye):
    X=            -18.4590    Y=              2.6241    Z=              6.8113  Tot=             19.8498
 Quadrupole moment (field-independent basis, Debye-Ang):
   XX=            -99.4072   YY=            -33.6269   ZZ=            -36.9655
   XY=             14.5302   XZ=             29.0442   YZ=             -6.7891

 Normal termination of Gaussian 16 at Fri May 31 17:51:05 2024.
