   * xtb version 6.3.3 (71d3805) compiled by 'conda@b85dec0bf610' on 2021-01-07
          program call               : /home/thijs/miniconda3/envs/ts-tools/bin/xtb TS_dOr2Us_ll_ad_0-5_0-1_conf0_opt_xtb.xyz --chrg -1 --uhf 0 --opt --gbsa Water --input xcontrol_TS_dOr2Us_ll_ad_0-5_0-1_conf0_opt_xtb
          number of atoms            :                     6
          number of electrons        :                    22
          charge                     :                    -1

   ID    Z sym.   atoms
    1    6 C      1
    2   17 Cl     2
    3    1 H      3-5
    4    9 F      6
constraining bond 1 2 to    2.1322000 Å, actual value:    2.1321628 Å
constraining bond 1 6 to    1.9961000 Å, actual value:    1.9961363 Å

        Solvent                        Water
        Solvent mass                       1.8000E+01 g/mol
          :  Hamiltonian                  GFN2-xTB          :
 * total energy  :   -13.2419145 Eh     change       -0.3916867E-10 Eh
 * total energy  :   -13.2449367 Eh     change       -0.3022262E-02 Eh
 * total energy  :   -13.2471503 Eh     change       -0.2213550E-02 Eh
 * total energy  :   -13.2453228 Eh     change        0.1827475E-02 Eh
 * total energy  :   -13.2473064 Eh     change       -0.1983590E-02 Eh
 * total energy  :   -13.2470676 Eh     change        0.2388008E-03 Eh
 * total energy  :   -13.2475627 Eh     change       -0.4951248E-03 Eh
 * total energy  :   -13.2476017 Eh     change       -0.3898873E-04 Eh
 * total energy  :   -13.2476184 Eh     change       -0.1669626E-04 Eh
 * total energy  :   -13.2476309 Eh     change       -0.1252596E-04 Eh
 * total energy  :   -13.2476354 Eh     change       -0.4438057E-05 Eh
 * total energy  :   -13.2476368 Eh     change       -0.1422296E-05 Eh
   *** GEOMETRY OPTIMIZATION CONVERGED AFTER 12 ITERATIONS ***

 final structure:
================
6
 xtb: 6.3.3 (71d3805)
C         5.38918643091254    0.66636563051129   -1.04984253036102
Cl        6.99629574168824   -0.38174968268396   -1.97610908866429
H         5.06292264868918    1.15478213607594   -1.94472683973241
H         4.87686553456130   -0.21312994459221   -0.71873270318817
H         6.00733088326714    1.20162041766977   -0.35904854503400
F         3.88399876088163    1.65017144301918   -0.18243029302012

          :  Hamiltonian                  GFN2-xTB          :
         :: total energy             -13.247636775950 Eh    ::
         :: gradient norm              0.000522466599 Eh/a0 ::
         :: HOMO-LUMO gap              3.915414174820 eV    ::
         :: SCC energy               -13.306541968824 Eh    ::
         :: -> dispersion             -0.002025391439 Eh    ::
         :: -> Gsolv                  -0.098209826106 Eh    ::
         :: repulsion energy           0.058885301749 Eh    ::

    * Orbital Energies and Occupations

         #    Occupation            Energy/Eh            Energy/eV
      -------------------------------------------------------------
         1        2.0000           -1.0239319             -27.8626
         2        2.0000           -0.6561940             -17.8559
         3        2.0000           -0.5837575             -15.8849
         4        2.0000           -0.4928530             -13.4112
         5        2.0000           -0.4928339             -13.4107
         6        2.0000           -0.4456316             -12.1263
         7        2.0000           -0.3968854             -10.7998
         8        2.0000           -0.3968844             -10.7998
         9        2.0000           -0.3743341             -10.1861
        10        2.0000           -0.3743315             -10.1861
        11        2.0000           -0.3717252             -10.1152 (HOMO)
        12                         -0.2278364              -6.1997 (LUMO)
        13                          0.0737759               2.0075
        14                          0.0737771               2.0076
        15                          0.0742915               2.0216
        16                          0.0742930               2.0216
        17                          0.0803925               2.1876
        18                          0.1316674               3.5829
        19                          0.2757366               7.5032
        20                          0.2759485               7.5089
      -------------------------------------------------------------
                  HL-Gap            0.1438888 Eh            3.9154 eV

     #   Z          covCN         q      C6AA      α(0)
     1   6 C        3.663     0.026    20.401     6.479
     2  17 Cl       0.721    -0.543   117.007    16.545
     3   1 H        0.926     0.088     1.902     2.157
     4   1 H        0.927     0.088     1.902     2.157
     5   1 H        0.926     0.088     1.902     2.157
     6   9 F        0.162    -0.745    19.250     5.114

Wiberg/Mayer (AO) data.
largest (>0.10) Wiberg bond orders for each atom

     #   Z sym  total        # sym  WBO       # sym  WBO       # sym  WBO
 ---------------------------------------------------------------------------
     1   6 C    3.889 --     4 H    0.990     5 H    0.990     3 H    0.990
                             2 Cl   0.590     6 F    0.328
     2  17 Cl   0.710 --     1 C    0.590     6 F    0.116
     3   1 H    0.992 --     1 C    0.990
     4   1 H    0.992 --     1 C    0.990
     5   1 H    0.992 --     1 C    0.990
     6   9 F    0.444 --     1 C    0.328     2 Cl   0.116
 ---------------------------------------------------------------------------

molecular dipole:
                 x           y           z       tot (Debye)
 q only:       -9.751      -1.545       1.734
   full:       -9.882      -1.459       1.810      25.802

           -------------------------------------------------
          | TOTAL ENERGY              -13.247636775950 Eh   |
          | GRADIENT NORM               0.000522466599 Eh/α |
          | HOMO-LUMO GAP               3.915414174820 eV   |
           -------------------------------------------------

 * finished run on 2024/05/31 at 17:50:19.970
